 Entering Gaussian System, Link 0=g16
 Initial command:
 /opt/bwhpc/common/chem/gaussian/g16.C.01/x86_64-Intel-avx2-source/g16/l1.exe "/tmp/ul_dcg62.665311/Gau-740606.inp" -scrdir="/tmp/ul_dcg62.665311/"
 Entering Link 1 = /opt/bwhpc/common/chem/gaussian/g16.C.01/x86_64-Intel-avx2-source/g16/l1.exe PID=    740607.
  
 Copyright (c) 1988-2019, Gaussian, Inc.  All Rights Reserved.
  
 This is part of the Gaussian(R) 16 program.  It is based on
 the Gaussian(R) 09 system (copyright 2009, Gaussian, Inc.),
 the Gaussian(R) 03 system (copyright 2003, Gaussian, Inc.),
 the Gaussian(R) 98 system (copyright 1998, Gaussian, Inc.),
 the Gaussian(R) 94 system (copyright 1995, Gaussian, Inc.),
 the Gaussian 92(TM) system (copyright 1992, Gaussian, Inc.),
 the Gaussian 90(TM) system (copyright 1990, Gaussian, Inc.),
 the Gaussian 88(TM) system (copyright 1988, Gaussian, Inc.),
 the Gaussian 86(TM) system (copyright 1986, Carnegie Mellon
 University), and the Gaussian 82(TM) system (copyright 1983,
 Carnegie Mellon University). Gaussian is a federally registered
 trademark of Gaussian, Inc.
  
 This software contains proprietary and confidential information,
 including trade secrets, belonging to Gaussian, Inc.
  
 This software is provided under written license and may be
 used, copied, transmitted, or stored only in accord with that
 written license.
  
 The following legend is applicable only to US Government
 contracts under FAR:
  
                    RESTRICTED RIGHTS LEGEND
  
 Use, reproduction and disclosure by the US Government is
 subject to restrictions as set forth in subparagraphs (a)
 and (c) of the Commercial Computer Software - Restricted
 Rights clause in FAR 52.227-19.
  
 Gaussian, Inc.
 340 Quinnipiac St., Bldg. 40, Wallingford CT 06492
  
  
 ---------------------------------------------------------------
 Warning -- This program may not be used in any manner that
 competes with the business of Gaussian, Inc. or will provide
 assistance to any competitor of Gaussian, Inc.  The licensee
 of this program is prohibited from giving any competitor of
 Gaussian, Inc. access to this program.  By using this program,
 the user acknowledges that Gaussian, Inc. is engaged in the
 business of creating and licensing software in the field of
 computational chemistry and represents and warrants to the
 licensee that it is not a competitor of Gaussian, Inc. and that
 it will not use this program in any manner prohibited above.
 ---------------------------------------------------------------
  

 Cite this work as:
 Gaussian 16, Revision C.01,
 M. J. Frisch, G. W. Trucks, H. B. Schlegel, G. E. Scuseria, 
 M. A. Robb, J. R. Cheeseman, G. Scalmani, V. Barone, 
 G. A. Petersson, H. Nakatsuji, X. Li, M. Caricato, A. V. Marenich, 
 J. Bloino, B. G. Janesko, R. Gomperts, B. Mennucci, H. P. Hratchian, 
 J. V. Ortiz, A. F. Izmaylov, J. L. Sonnenberg, D. Williams-Young, 
 F. Ding, F. Lipparini, F. Egidi, J. Goings, B. Peng, A. Petrone, 
 T. Henderson, D. Ranasinghe, V. G. Zakrzewski, J. Gao, N. Rega, 
 G. Zheng, W. Liang, M. Hada, M. Ehara, K. Toyota, R. Fukuda, 
 J. Hasegawa, M. Ishida, T. Nakajima, Y. Honda, O. Kitao, H. Nakai, 
 T. Vreven, K. Throssell, J. A. Montgomery, Jr., J. E. Peralta, 
 F. Ogliaro, M. J. Bearpark, J. J. Heyd, E. N. Brothers, K. N. Kudin, 
 V. N. Staroverov, T. A. Keith, R. Kobayashi, J. Normand, 
 K. Raghavachari, A. P. Rendell, J. C. Burant, S. S. Iyengar, 
 J. Tomasi, M. Cossi, J. M. Millam, M. Klene, C. Adamo, R. Cammi, 
 J. W. Ochterski, R. L. Martin, K. Morokuma, O. Farkas, 
 J. B. Foresman, and D. J. Fox, Gaussian, Inc., Wallingford CT, 2019.
 
 ******************************************
 Gaussian 16:  ES64L-G16RevC.01  3-Jul-2019
                15-Oct-2020 
 ******************************************
 %nprocshared=32
 Will use up to   32 processors via shared memory.
 %mem=2000MW
 ----------------------------------------------------------------------
 #p td=(nstates=50) b3lyp empiricaldispersion=gd3bj scrf=(smd,solvent=a
 cetonitrile) def2svp
 ----------------------------------------------------------------------
 1/38=1,172=1/1;
 2/12=2,17=6,18=5,40=1/2;
 3/5=43,7=101,11=9,25=1,30=1,70=32201,72=2,74=-5,124=41/1,2,3,8;
 4//1;
 5/5=2,38=5,53=2/2;
 8/6=1,10=1,108=50/1;
 9/41=50,42=1,70=2/14;
 6/7=2,8=2,9=2,10=2/1;
 99/5=1,9=1/99;
 Leave Link    1 at Thu Oct 15 11:02:31 2020, MaxMem=  2097152000 cpu:               2.3 elap:               0.1
 (Enter /opt/bwhpc/common/chem/gaussian/g16.C.01/x86_64-Intel-avx2-source/g16/l101.exe)
 -----
 Title
 -----
 Symbolic Z-matrix:
 Charge =  0 Multiplicity = 1
 C                     11.42135   1.20678   0.06235 
 C                     10.03354   1.41719   0.05238 
 C                     11.94271  -0.08473   0.04235 
 C                     9.14988   0.30587   0.02194 
 C                     11.08475  -1.19673   0.01182 
 C                     9.70318  -0.99255   0.00176 
 H                     12.1074   2.05296   0.08553 
 H                     13.02224  -0.24965   0.04995 
 O                     11.67919  -2.41914  -0.00599 
 H                     9.02855  -1.84627  -0.02163 
 C                     10.85899  -3.57077  -0.04087 
 H                     11.53453  -4.43702  -0.05116 
 H                     10.22818  -3.59817  -0.94717 
 H                     10.20604  -3.63703   0.84752 
 O                     9.46518   2.65127   0.07057 
 C                     10.29635   3.79551   0.10649 
 H                     9.62682   4.66618   0.11705 
 H                     10.94856   3.85567  -0.7823 
 H                     10.92545   3.81579   1.01361 
 C                     7.70834   0.54598   0.01352 
 C                     6.73851  -0.4008   -0.01072 
 H                     7.42705   1.60025   0.02958 
 C                     5.30041  -0.15973  -0.01774 
 H                     7.01858  -1.45538  -0.02546 
 C                     4.74082   1.13331  -0.00638 
 C                     3.36268   1.34321  -0.01227 
 C                     2.46893   0.23546  -0.02943 
 C                     4.40701  -1.26743  -0.03631 
 C                     3.02898  -1.05795  -0.04175 
 H                     5.41185   1.98963   0.00713 
 H                     2.35802  -1.9143   -0.05571 
 O                     4.97379  -2.50238  -0.04743 
 C                     4.13992  -3.6449   -0.07036 
 H                     4.80717  -4.51725  -0.07687 
 H                     3.50634  -3.67041  -0.97418 
 H                     3.49119  -3.69567   0.82153 
 O                     2.79639   2.57813  -0.0017 
 C                     3.63035   3.72072   0.01966 
 H                     2.96307   4.59304   0.02566 
 H                     4.27858   3.77052  -0.87262 
 H                     4.26431   3.74704   0.92316 
 C                     1.03251   0.47635  -0.0319 
 C                     0.06068  -0.47144  -0.03543 
 H                     0.75181   1.53087  -0.028 
 C                    -1.37555  -0.22957  -0.03513 
 H                     0.34108  -1.52603  -0.03603 
 C                    -1.93448   1.0643   -0.04311 
 C                    -3.31228   1.27497  -0.03978 
 C                    -4.20675   0.16767  -0.0277 
 C                    -2.27031  -1.33697  -0.02479 
 C                    -3.64803  -1.12626  -0.02089 
 H                    -1.26288   1.92019  -0.05197 
 H                    -4.31982  -1.98205  -0.01267 
 O                    -1.70453  -2.57211  -0.01849 
 O                    -3.87789   2.51013  -0.04678 
 C                    -3.04322   3.65236  -0.06223 
 H                    -3.71001   4.52505  -0.06646 
 H                    -2.40732   3.68157  -0.96427 
 H                    -2.39691   3.69843   0.83164 
 C                    -2.53919  -3.71433  -0.0055 
 H                    -1.87244  -4.58706  -0.00201 
 H                    -3.18477  -3.75904  -0.89999 
 H                    -3.17588  -3.7449    0.89593 
 C                    -5.64325   0.40987  -0.02196 
 C                    -6.61557  -0.53615   0.00081 
 H                    -5.92268   1.46466  -0.03549 
 C                    -8.05302  -0.29137   0.00847 
 H                    -6.33701  -1.59107   0.01712 
 C                    -8.60863   1.00268  -0.01648 
 C                    -9.98757   1.21619  -0.00662 
 C                    -10.87882   0.11111   0.02942 
 C                    -8.94786  -1.39698   0.04354 
 C                    -10.32636  -1.18208   0.05364 
 H                    -7.93536   1.85685  -0.04378 
 H                    -11.00249  -2.03466   0.07992 
 O                    -8.38438  -2.63298   0.06564 
 O                    -10.55039   2.45252  -0.02901 
 C                    -9.7126    3.59187  -0.06933 
 H                    -10.37692   4.46641  -0.08176 
 H                    -9.08404   3.60551  -0.97693 
 H                    -9.05873   3.65053   0.81831 
 C                    -9.2206   -3.77347   0.10374 
 H                    -8.5551   -4.6471    0.11592 
 H                    -9.87328  -3.8317   -0.78479 
 H                    -9.84995  -3.78862   1.01073 
 C                    -12.32717   0.34813   0.0403 
 C                    -13.29859  -0.57982   0.09083 
 H                    -12.61592   1.40145   0.00424 
 H                    -13.09375  -1.65406   0.1307 
 H                    -14.35076  -0.28183   0.09343 
 
 ITRead=  0  0  0  0  0  0  0  0  0  0  0  0  0  0  0  0  0  0  0  0
 ITRead=  0  0  0  0  0  0  0  0  0  0  0  0  0  0  0  0  0  0  0  0
 ITRead=  0  0  0  0  0  0  0  0  0  0  0  0  0  0  0  0  0  0  0  0
 ITRead=  0  0  0  0  0  0  0  0  0  0  0  0  0  0  0  0  0  0  0  0
 ITRead=  0  0  0  0  0  0  0  0  0  0
 MicOpt= -1 -1 -1 -1 -1 -1 -1 -1 -1 -1 -1 -1 -1 -1 -1 -1 -1 -1 -1 -1
 MicOpt= -1 -1 -1 -1 -1 -1 -1 -1 -1 -1 -1 -1 -1 -1 -1 -1 -1 -1 -1 -1
 MicOpt= -1 -1 -1 -1 -1 -1 -1 -1 -1 -1 -1 -1 -1 -1 -1 -1 -1 -1 -1 -1
 MicOpt= -1 -1 -1 -1 -1 -1 -1 -1 -1 -1 -1 -1 -1 -1 -1 -1 -1 -1 -1 -1
 MicOpt= -1 -1 -1 -1 -1 -1 -1 -1 -1 -1
 NAtoms=     90 NQM=       90 NQMF=       0 NMMI=      0 NMMIF=      0
                NMic=       0 NMicF=      0.
                    Isotopes and Nuclear Properties:
 (Nuclear quadrupole moments (NQMom) in fm**2, nuclear magnetic moments (NMagM)
  in nuclear magnetons)

  Atom         1           2           3           4           5           6           7           8           9          10
 IAtWgt=          12          12          12          12          12          12           1           1          16           1
 AtmWgt=  12.0000000  12.0000000  12.0000000  12.0000000  12.0000000  12.0000000   1.0078250   1.0078250  15.9949146   1.0078250
 NucSpn=           0           0           0           0           0           0           1           1           0           1
 AtZEff=  -0.0000000  -0.0000000  -0.0000000  -0.0000000  -0.0000000  -0.0000000  -0.0000000  -0.0000000  -0.0000000  -0.0000000
 NQMom=    0.0000000   0.0000000   0.0000000   0.0000000   0.0000000   0.0000000   0.0000000   0.0000000   0.0000000   0.0000000
 NMagM=    0.0000000   0.0000000   0.0000000   0.0000000   0.0000000   0.0000000   2.7928460   2.7928460   0.0000000   2.7928460
 AtZNuc=   6.0000000   6.0000000   6.0000000   6.0000000   6.0000000   6.0000000   1.0000000   1.0000000   8.0000000   1.0000000

  Atom        11          12          13          14          15          16          17          18          19          20
 IAtWgt=          12           1           1           1          16          12           1           1           1          12
 AtmWgt=  12.0000000   1.0078250   1.0078250   1.0078250  15.9949146  12.0000000   1.0078250   1.0078250   1.0078250  12.0000000
 NucSpn=           0           1           1           1           0           0           1           1           1           0
 AtZEff=  -0.0000000  -0.0000000  -0.0000000  -0.0000000  -0.0000000  -0.0000000  -0.0000000  -0.0000000  -0.0000000  -0.0000000
 NQMom=    0.0000000   0.0000000   0.0000000   0.0000000   0.0000000   0.0000000   0.0000000   0.0000000   0.0000000   0.0000000
 NMagM=    0.0000000   2.7928460   2.7928460   2.7928460   0.0000000   0.0000000   2.7928460   2.7928460   2.7928460   0.0000000
 AtZNuc=   6.0000000   1.0000000   1.0000000   1.0000000   8.0000000   6.0000000   1.0000000   1.0000000   1.0000000   6.0000000

  Atom        21          22          23          24          25          26          27          28          29          30
 IAtWgt=          12           1          12           1          12          12          12          12          12           1
 AtmWgt=  12.0000000   1.0078250  12.0000000   1.0078250  12.0000000  12.0000000  12.0000000  12.0000000  12.0000000   1.0078250
 NucSpn=           0           1           0           1           0           0           0           0           0           1
 AtZEff=  -0.0000000  -0.0000000  -0.0000000  -0.0000000  -0.0000000  -0.0000000  -0.0000000  -0.0000000  -0.0000000  -0.0000000
 NQMom=    0.0000000   0.0000000   0.0000000   0.0000000   0.0000000   0.0000000   0.0000000   0.0000000   0.0000000   0.0000000
 NMagM=    0.0000000   2.7928460   0.0000000   2.7928460   0.0000000   0.0000000   0.0000000   0.0000000   0.0000000   2.7928460
 AtZNuc=   6.0000000   1.0000000   6.0000000   1.0000000   6.0000000   6.0000000   6.0000000   6.0000000   6.0000000   1.0000000

  Atom        31          32          33          34          35          36          37          38          39          40
 IAtWgt=           1          16          12           1           1           1          16          12           1           1
 AtmWgt=   1.0078250  15.9949146  12.0000000   1.0078250   1.0078250   1.0078250  15.9949146  12.0000000   1.0078250   1.0078250
 NucSpn=           1           0           0           1           1           1           0           0           1           1
 AtZEff=  -0.0000000  -0.0000000  -0.0000000  -0.0000000  -0.0000000  -0.0000000  -0.0000000  -0.0000000  -0.0000000  -0.0000000
 NQMom=    0.0000000   0.0000000   0.0000000   0.0000000   0.0000000   0.0000000   0.0000000   0.0000000   0.0000000   0.0000000
 NMagM=    2.7928460   0.0000000   0.0000000   2.7928460   2.7928460   2.7928460   0.0000000   0.0000000   2.7928460   2.7928460
 AtZNuc=   1.0000000   8.0000000   6.0000000   1.0000000   1.0000000   1.0000000   8.0000000   6.0000000   1.0000000   1.0000000

  Atom        41          42          43          44          45          46          47          48          49          50
 IAtWgt=           1          12          12           1          12           1          12          12          12          12
 AtmWgt=   1.0078250  12.0000000  12.0000000   1.0078250  12.0000000   1.0078250  12.0000000  12.0000000  12.0000000  12.0000000
 NucSpn=           1           0           0           1           0           1           0           0           0           0
 AtZEff=  -0.0000000  -0.0000000  -0.0000000  -0.0000000  -0.0000000  -0.0000000  -0.0000000  -0.0000000  -0.0000000  -0.0000000
 NQMom=    0.0000000   0.0000000   0.0000000   0.0000000   0.0000000   0.0000000   0.0000000   0.0000000   0.0000000   0.0000000
 NMagM=    2.7928460   0.0000000   0.0000000   2.7928460   0.0000000   2.7928460   0.0000000   0.0000000   0.0000000   0.0000000
 AtZNuc=   1.0000000   6.0000000   6.0000000   1.0000000   6.0000000   1.0000000   6.0000000   6.0000000   6.0000000   6.0000000

  Atom        51          52          53          54          55          56          57          58          59          60
 IAtWgt=          12           1           1          16          16          12           1           1           1          12
 AtmWgt=  12.0000000   1.0078250   1.0078250  15.9949146  15.9949146  12.0000000   1.0078250   1.0078250   1.0078250  12.0000000
 NucSpn=           0           1           1           0           0           0           1           1           1           0
 AtZEff=  -0.0000000  -0.0000000  -0.0000000  -0.0000000  -0.0000000  -0.0000000  -0.0000000  -0.0000000  -0.0000000  -0.0000000
 NQMom=    0.0000000   0.0000000   0.0000000   0.0000000   0.0000000   0.0000000   0.0000000   0.0000000   0.0000000   0.0000000
 NMagM=    0.0000000   2.7928460   2.7928460   0.0000000   0.0000000   0.0000000   2.7928460   2.7928460   2.7928460   0.0000000
 AtZNuc=   6.0000000   1.0000000   1.0000000   8.0000000   8.0000000   6.0000000   1.0000000   1.0000000   1.0000000   6.0000000

  Atom        61          62          63          64          65          66          67          68          69          70
 IAtWgt=           1           1           1          12          12           1          12           1          12          12
 AtmWgt=   1.0078250   1.0078250   1.0078250  12.0000000  12.0000000   1.0078250  12.0000000   1.0078250  12.0000000  12.0000000
 NucSpn=           1           1           1           0           0           1           0           1           0           0
 AtZEff=  -0.0000000  -0.0000000  -0.0000000  -0.0000000  -0.0000000  -0.0000000  -0.0000000  -0.0000000  -0.0000000  -0.0000000
 NQMom=    0.0000000   0.0000000   0.0000000   0.0000000   0.0000000   0.0000000   0.0000000   0.0000000   0.0000000   0.0000000
 NMagM=    2.7928460   2.7928460   2.7928460   0.0000000   0.0000000   2.7928460   0.0000000   2.7928460   0.0000000   0.0000000
 AtZNuc=   1.0000000   1.0000000   1.0000000   6.0000000   6.0000000   1.0000000   6.0000000   1.0000000   6.0000000   6.0000000

  Atom        71          72          73          74          75          76          77          78          79          80
 IAtWgt=          12          12          12           1           1          16          16          12           1           1
 AtmWgt=  12.0000000  12.0000000  12.0000000   1.0078250   1.0078250  15.9949146  15.9949146  12.0000000   1.0078250   1.0078250
 NucSpn=           0           0           0           1           1           0           0           0           1           1
 AtZEff=  -0.0000000  -0.0000000  -0.0000000  -0.0000000  -0.0000000  -0.0000000  -0.0000000  -0.0000000  -0.0000000  -0.0000000
 NQMom=    0.0000000   0.0000000   0.0000000   0.0000000   0.0000000   0.0000000   0.0000000   0.0000000   0.0000000   0.0000000
 NMagM=    0.0000000   0.0000000   0.0000000   2.7928460   2.7928460   0.0000000   0.0000000   0.0000000   2.7928460   2.7928460
 AtZNuc=   6.0000000   6.0000000   6.0000000   1.0000000   1.0000000   8.0000000   8.0000000   6.0000000   1.0000000   1.0000000

  Atom        81          82          83          84          85          86          87          88          89          90
 IAtWgt=           1          12           1           1           1          12          12           1           1           1
 AtmWgt=   1.0078250  12.0000000   1.0078250   1.0078250   1.0078250  12.0000000  12.0000000   1.0078250   1.0078250   1.0078250
 NucSpn=           1           0           1           1           1           0           0           1           1           1
 AtZEff=  -0.0000000  -0.0000000  -0.0000000  -0.0000000  -0.0000000  -0.0000000  -0.0000000  -0.0000000  -0.0000000  -0.0000000
 NQMom=    0.0000000   0.0000000   0.0000000   0.0000000   0.0000000   0.0000000   0.0000000   0.0000000   0.0000000   0.0000000
 NMagM=    2.7928460   0.0000000   2.7928460   2.7928460   2.7928460   0.0000000   0.0000000   2.7928460   2.7928460   2.7928460
 AtZNuc=   1.0000000   6.0000000   1.0000000   1.0000000   1.0000000   6.0000000   6.0000000   1.0000000   1.0000000   1.0000000
 Leave Link  101 at Thu Oct 15 11:02:32 2020, MaxMem=  2097152000 cpu:               6.4 elap:               0.2
 (Enter /opt/bwhpc/common/chem/gaussian/g16.C.01/x86_64-Intel-avx2-source/g16/l202.exe)
 Stoichiometry    C40H42O8
 Framework group  C1[X(C40H42O8)]
 Deg. of freedom   264
 Full point group                 C1      NOp   1
 Largest Abelian subgroup         C1      NOp   1
 Largest concise Abelian subgroup C1      NOp   1
                         Standard orientation:                         
 ---------------------------------------------------------------------
 Center     Atomic      Atomic             Coordinates (Angstroms)
 Number     Number       Type             X           Y           Z
 ---------------------------------------------------------------------
      1          6           0      -11.421353    1.206777   -0.062354
      2          6           0      -10.033540    1.417191   -0.052381
      3          6           0      -11.942713   -0.084725   -0.042351
      4          6           0       -9.149878    0.305867   -0.021944
      5          6           0      -11.084755   -1.196734   -0.011817
      6          6           0       -9.703182   -0.992547   -0.001763
      7          1           0      -12.107405    2.052958   -0.085525
      8          1           0      -13.022241   -0.249651   -0.049952
      9          8           0      -11.679186   -2.419138    0.005992
     10          1           0       -9.028549   -1.846268    0.021629
     11          6           0      -10.858990   -3.570767    0.040867
     12          1           0      -11.534533   -4.437018    0.051160
     13          1           0      -10.228182   -3.598173    0.947166
     14          1           0      -10.206041   -3.637030   -0.847523
     15          8           0       -9.465183    2.651274   -0.070571
     16          6           0      -10.296354    3.795513   -0.106494
     17          1           0       -9.626816    4.666180   -0.117053
     18          1           0      -10.948562    3.855673    0.782299
     19          1           0      -10.925454    3.815791   -1.013607
     20          6           0       -7.708336    0.545977   -0.013519
     21          6           0       -6.738506   -0.400802    0.010721
     22          1           0       -7.427052    1.600246   -0.029575
     23          6           0       -5.300413   -0.159729    0.017740
     24          1           0       -7.018580   -1.455384    0.025461
     25          6           0       -4.740818    1.133309    0.006376
     26          6           0       -3.362678    1.343213    0.012267
     27          6           0       -2.468931    0.235462    0.029432
     28          6           0       -4.407007   -1.267429    0.036314
     29          6           0       -3.028976   -1.057947    0.041751
     30          1           0       -5.411854    1.989626   -0.007125
     31          1           0       -2.358018   -1.914300    0.055709
     32          8           0       -4.973785   -2.502378    0.047429
     33          6           0       -4.139925   -3.644895    0.070359
     34          1           0       -4.807172   -4.517252    0.076874
     35          1           0       -3.506344   -3.670414    0.974179
     36          1           0       -3.491187   -3.695665   -0.821525
     37          8           0       -2.796387    2.578128    0.001696
     38          6           0       -3.630347    3.720720   -0.019663
     39          1           0       -2.963067    4.593042   -0.025656
     40          1           0       -4.278575    3.770515    0.872620
     41          1           0       -4.264309    3.747038   -0.923159
     42          6           0       -1.032506    0.476351    0.031897
     43          6           0       -0.060680   -0.471436    0.035434
     44          1           0       -0.751805    1.530870    0.027998
     45          6           0        1.375553   -0.229573    0.035130
     46          1           0       -0.341077   -1.526034    0.036031
     47          6           0        1.934483    1.064301    0.043107
     48          6           0        3.312282    1.274965    0.039783
     49          6           0        4.206747    0.167672    0.027704
     50          6           0        2.270312   -1.336972    0.024787
     51          6           0        3.648030   -1.126263    0.020887
     52          1           0        1.262877    1.920187    0.051970
     53          1           0        4.319821   -1.982054    0.012668
     54          8           0        1.704526   -2.572106    0.018487
     55          8           0        3.877890    2.510130    0.046783
     56          6           0        3.043215    3.652363    0.062228
     57          1           0        3.710013    4.525051    0.066458
     58          1           0        2.407324    3.681567    0.964265
     59          1           0        2.396908    3.698430   -0.831636
     60          6           0        2.539186   -3.714327    0.005504
     61          1           0        1.872438   -4.587061    0.002008
     62          1           0        3.184767   -3.759044    0.899985
     63          1           0        3.175878   -3.744904   -0.895934
     64          6           0        5.643251    0.409869    0.021960
     65          6           0        6.615568   -0.536152   -0.000805
     66          1           0        5.922680    1.464658    0.035485
     67          6           0        8.053017   -0.291370   -0.008466
     68          1           0        6.337010   -1.591071   -0.017124
     69          6           0        8.608626    1.002681    0.016477
     70          6           0        9.987571    1.216193    0.006619
     71          6           0       10.878823    0.111110   -0.029420
     72          6           0        8.947855   -1.396975   -0.043536
     73          6           0       10.326357   -1.182082   -0.053639
     74          1           0        7.935363    1.856853    0.043782
     75          1           0       11.002490   -2.034660   -0.079916
     76          8           0        8.384376   -2.632981   -0.065637
     77          8           0       10.550390    2.452523    0.029009
     78          6           0        9.712596    3.591870    0.069334
     79          1           0       10.376925    4.466410    0.081757
     80          1           0        9.084041    3.605508    0.976928
     81          1           0        9.058730    3.650525   -0.818310
     82          6           0        9.220603   -3.773472   -0.103742
     83          1           0        8.555104   -4.647104   -0.115916
     84          1           0        9.873284   -3.831695    0.784786
     85          1           0        9.849951   -3.788620   -1.010734
     86          6           0       12.327167    0.348127   -0.040303
     87          6           0       13.298586   -0.579816   -0.090827
     88          1           0       12.615920    1.401446   -0.004242
     89          1           0       13.093754   -1.654055   -0.130695
     90          1           0       14.350760   -0.281834   -0.093427
 ---------------------------------------------------------------------
 Rotational constants (GHZ):           0.1748687           0.0132999           0.0123685
 Leave Link  202 at Thu Oct 15 11:02:32 2020, MaxMem=  2097152000 cpu:               0.8 elap:               0.0
 (Enter /opt/bwhpc/common/chem/gaussian/g16.C.01/x86_64-Intel-avx2-source/g16/l301.exe)
 Standard basis: def2SVP (5D, 7F)
 Ernie: Thresh=  0.10000D-02 Tol=  0.10000D-05 Strict=F.
 There are   930 symmetry adapted cartesian basis functions of A   symmetry.
 There are   882 symmetry adapted basis functions of A   symmetry.
   882 basis functions,  1494 primitive gaussians,   930 cartesian basis functions
   173 alpha electrons      173 beta electrons
       nuclear repulsion energy      5206.0589571831 Hartrees.
 IExCor=  402 DFT=T Ex+Corr=B3LYP ExCW=0 ScaHFX=  0.200000
 ScaDFX=  0.800000  0.720000  1.000000  0.810000 ScalE2=  1.000000  1.000000
 IRadAn=      5 IRanWt=     -1 IRanGd=            0 ICorTp=0 IEmpDi=141
 NAtoms=   90 NActive=   90 NUniq=   90 SFac= 1.00D+00 NAtFMM=   60 NAOKFM=T Big=T
 Integral buffers will be    131072 words long.
 Regular integral format.
 Two-electron integral symmetry is turned on.
 R6Disp:  Grimme-D3(BJ) Dispersion energy=       -0.1879091080 Hartrees.
 Nuclear repulsion after empirical dispersion term =     5205.8710480752 Hartrees.
 ------------------------------------------------------------------------------
 Polarizable Continuum Model (PCM)
 =================================
 Model                : PCM.
 Atomic radii         : SMD-Coulomb.
 Polarization charges : Total charges.
 Charge compensation  : None.
 Solution method      : On-the-fly selection.
 Cavity type          : VdW (van der Waals Surface) (Alpha=1.000).
 Cavity algorithm     : GePol (No added spheres)
                        Default sphere list used, NSphG=   90.
                        Lebedev-Laikov grids with approx.  5.0 points / Ang**2.
                        Smoothing algorithm: York/Karplus (Gamma=1.0000).
                        Polarization charges: spherical gaussians, with
                                              point-specific exponents (IZeta= 3).
                        Self-potential: point-specific (ISelfS= 7).
                        Self-field    : sphere-specific E.n sum rule (ISelfD= 2).
 Solvent              : Acetonitrile, Eps=  35.688000 Eps(inf)=   1.806874
 ------------------------------------------------------------------------------
 GePol: Number of generator spheres                  =      90
 GePol: Total number of spheres                      =      90
 GePol: Number of exposed spheres                    =      90 (100.00%)
 GePol: Number of points                             =    6431
 GePol: Average weight of points                     =       0.12
 GePol: Minimum weight of points                     =   0.13D-09
 GePol: Maximum weight of points                     =    0.21559
 GePol: Number of points with low weight             =     401
 GePol: Fraction of low-weight points (<1% of avg)   =       6.24%
 GePol: Cavity surface area                          =    739.842 Ang**2
 GePol: Cavity volume                                =    738.796 Ang**3
 ------------------------------------------------------------------------------
 Atomic radii for non-electrostatic terms: SMD-CDS.
 ------------------------------------------------------------------------------
 PCM non-electrostatic energy =        -0.0034684116 Hartrees.
 Nuclear repulsion after PCM non-electrostatic terms =     5205.8675796636 Hartrees.
 Leave Link  301 at Thu Oct 15 11:02:32 2020, MaxMem=  2097152000 cpu:               5.2 elap:               0.2
 (Enter /opt/bwhpc/common/chem/gaussian/g16.C.01/x86_64-Intel-avx2-source/g16/l302.exe)
 NPDir=0 NMtPBC=     1 NCelOv=     1 NCel=       1 NClECP=     1 NCelD=      1
         NCelK=      1 NCelE2=     1 NClLst=     1 CellRange=     0.0.
 One-electron integrals computed using PRISM.
 One-electron integral symmetry used in STVInt
   1 Symmetry operations used in ECPInt.
 ECPInt:  NShTT=   85905 NPrTT=  310041 LenC2=   46252 LenP2D=  105251.
 LDataN:  DoStor=T MaxTD1= 4 Len=   56
 NBasis=   882 RedAO= T EigKep=  1.98D-04  NBF=   882
 NBsUse=   882 1.00D-06 EigRej= -1.00D+00 NBFU=   882
 Precomputing XC quadrature grid using
 IXCGrd= 4 IRadAn=           5 IRanWt=          -1 IRanGd=           0 AccXCQ= 0.00D+00.
 Generated NRdTot=       0 NPtTot=           0 NUsed=           0 NTot=          32
 NSgBfM=   733   723   723   732   733 MxSgAt=    90 MxSgA2=    90.
 Leave Link  302 at Thu Oct 15 11:02:35 2020, MaxMem=  2097152000 cpu:              97.1 elap:               3.1
 (Enter /opt/bwhpc/common/chem/gaussian/g16.C.01/x86_64-Intel-avx2-source/g16/l303.exe)
 DipDrv:  MaxL=1.
 Leave Link  303 at Thu Oct 15 11:02:35 2020, MaxMem=  2097152000 cpu:               6.3 elap:               0.2
 (Enter /opt/bwhpc/common/chem/gaussian/g16.C.01/x86_64-Intel-avx2-source/g16/l308.exe)
 Leave Link  308 at Thu Oct 15 11:02:36 2020, MaxMem=  2097152000 cpu:               9.5 elap:               0.4
 (Enter /opt/bwhpc/common/chem/gaussian/g16.C.01/x86_64-Intel-avx2-source/g16/l401.exe)
 ExpMin= 1.22D-01 ExpMax= 2.27D+03 ExpMxC= 3.41D+02 IAcc=3 IRadAn=         5 AccDes= 0.00D+00
 Harris functional with IExCor=  402 and IRadAn=       5 diagonalized for initial guess.
 HarFok:  IExCor=  402 AccDes= 0.00D+00 IRadAn=         5 IDoV= 1 UseB2=F ITyADJ=14
 ICtDFT=  3500011 ScaDFX=  1.000000  1.000000  1.000000  1.000000
 FoFCou: FMM=F IPFlag=           0 FMFlag=      100000 FMFlg1=        2001
         NFxFlg=           0 DoJE=T BraDBF=F KetDBF=T FulRan=T
         wScrn=  0.000000 ICntrl=       500 IOpCl=  0 I1Cent=   200000004 NGrid=           0
         NMat0=    1 NMatS0=      1 NMatT0=    0 NMatD0=    1 NMtDS0=    0 NMtDT0=    0
 Petite list used in FoFCou.
 Harris En= -2149.76918012309    
 JPrj=0 DoOrth=F DoCkMO=F.
 Leave Link  401 at Thu Oct 15 11:02:42 2020, MaxMem=  2097152000 cpu:             195.9 elap:               6.2
 (Enter /opt/bwhpc/common/chem/gaussian/g16.C.01/x86_64-Intel-avx2-source/g16/l502.exe)
 Integral symmetry usage will be decided dynamically.
 Closed shell SCF:
 Using DIIS extrapolation, IDIIS=  1040.
 NGot=  2097152000 LenX=  2095380538 LenY=  2094514708
 Requested convergence on RMS density matrix=1.00D-08 within 128 cycles.
 Requested convergence on MAX density matrix=1.00D-06.
 Requested convergence on             energy=1.00D-06.
 No special actions if energy rises.
 Fock matrices will be formed incrementally for  20 cycles.

 Cycle   1  Pass 1  IDiag  1:
 FoFJK:  IHMeth= 1 ICntrl=       0 DoSepK=F KAlg= 0 I1Cent=           0 FoldK=F
 IRaf= 570000000 NMat=       1 IRICut=       1 DoRegI=T DoRafI=F ISym2E= 0 IDoP0=0 IntGTp=1.
 FoFCou: FMM=T IPFlag=           0 FMFlag=      100000 FMFlg1=        2001
         NFxFlg=           0 DoJE=F BraDBF=F KetDBF=F FulRan=T
         wScrn=  0.000000 ICntrl=         0 IOpCl=  0 I1Cent=           0 NGrid=           0
         NMat0=    1 NMatS0=      1 NMatT0=    0 NMatD0=    1 NMtDS0=    0 NMtDT0=    0
 Symmetry not used in FoFCou.
 FMM levels:  10  Number of levels for PrismC:   9
 Inv3:  Mode=1 IEnd=   124073283.
 Iteration    1 A*A^-1 deviation from unit magnitude is 9.10D-15 for   6403.
 Iteration    1 A*A^-1 deviation from orthogonality  is 4.06D-15 for   6427   6397.
 Iteration    1 A^-1*A deviation from unit magnitude is 9.10D-15 for   6403.
 Iteration    1 A^-1*A deviation from orthogonality  is 4.18D-15 for   6406   4728.
 E= -2149.06733578842    
 DIIS: error= 3.35D-02 at cycle   1 NSaved=   1.
 NSaved= 1 IEnMin= 1 EnMin= -2149.06733578842     IErMin= 1 ErrMin= 3.35D-02
 ErrMax= 3.35D-02  0.00D+00 EMaxC= 1.00D-01 BMatC= 7.30D-01 BMatP= 7.30D-01
 IDIUse=3 WtCom= 6.65D-01 WtEn= 3.35D-01
 Coeff-Com:  0.100D+01
 Coeff-En:   0.100D+01
 Coeff:      0.100D+01
 Gap=     0.111 Goal=   None    Shift=    0.000
 GapD=    0.111 DampG=1.000 DampE=0.500 DampFc=0.5000 IDamp=-1.
 Damping current iteration by 5.00D-01
 RMSDP=2.58D-03 MaxDP=1.30D-01              OVMax= 1.48D-01

 Cycle   2  Pass 1  IDiag  1:
 RMSU=  1.20D-03    CP:  9.62D-01
 E= -2149.47584003390     Delta-E=       -0.408504245485 Rises=F Damp=T
 DIIS: error= 4.93D-03 at cycle   2 NSaved=   2.
 NSaved= 2 IEnMin= 2 EnMin= -2149.47584003390     IErMin= 2 ErrMin= 4.93D-03
 ErrMax= 4.93D-03  0.00D+00 EMaxC= 1.00D-01 BMatC= 3.78D-02 BMatP= 7.30D-01
 IDIUse=3 WtCom= 9.51D-01 WtEn= 4.93D-02
 Coeff-Com: -0.397D-01 0.104D+01
 Coeff-En:   0.000D+00 0.100D+01
 Coeff:     -0.377D-01 0.104D+01
 Gap=     0.096 Goal=   None    Shift=    0.000
 RMSDP=8.39D-04 MaxDP=4.80D-02 DE=-4.09D-01 OVMax= 8.14D-02

 Cycle   3  Pass 1  IDiag  1:
 RMSU=  6.72D-04    CP:  9.35D-01  1.32D+00
 E= -2149.86203533095     Delta-E=       -0.386195297051 Rises=F Damp=F
 DIIS: error= 3.75D-03 at cycle   3 NSaved=   3.
 NSaved= 3 IEnMin= 3 EnMin= -2149.86203533095     IErMin= 3 ErrMin= 3.75D-03
 ErrMax= 3.75D-03  0.00D+00 EMaxC= 1.00D-01 BMatC= 2.03D-02 BMatP= 3.78D-02
 IDIUse=3 WtCom= 9.63D-01 WtEn= 3.75D-02
 Coeff-Com: -0.568D-01 0.448D+00 0.609D+00
 Coeff-En:   0.000D+00 0.000D+00 0.100D+01
 Coeff:     -0.546D-01 0.431D+00 0.624D+00
 Gap=     0.092 Goal=   None    Shift=    0.000
 RMSDP=2.38D-04 MaxDP=2.25D-02 DE=-3.86D-01 OVMax= 3.06D-02

 Cycle   4  Pass 1  IDiag  1:
 RMSU=  2.08D-04    CP:  9.37D-01  1.31D+00  8.33D-01
 E= -2149.87852823184     Delta-E=       -0.016492900891 Rises=F Damp=F
 DIIS: error= 1.66D-03 at cycle   4 NSaved=   4.
 NSaved= 4 IEnMin= 4 EnMin= -2149.87852823184     IErMin= 4 ErrMin= 1.66D-03
 ErrMax= 1.66D-03  0.00D+00 EMaxC= 1.00D-01 BMatC= 3.01D-03 BMatP= 2.03D-02
 IDIUse=3 WtCom= 9.83D-01 WtEn= 1.66D-02
 Coeff-Com: -0.177D-01 0.832D-01 0.308D+00 0.626D+00
 Coeff-En:   0.000D+00 0.000D+00 0.109D+00 0.891D+00
 Coeff:     -0.174D-01 0.819D-01 0.305D+00 0.631D+00
 Gap=     0.091 Goal=   None    Shift=    0.000
 RMSDP=9.25D-05 MaxDP=8.33D-03 DE=-1.65D-02 OVMax= 1.02D-02

 Cycle   5  Pass 1  IDiag  1:
 RMSU=  4.59D-05    CP:  9.36D-01  1.32D+00  8.79D-01  6.56D-01
 E= -2149.88150704839     Delta-E=       -0.002978816548 Rises=F Damp=F
 DIIS: error= 3.47D-04 at cycle   5 NSaved=   5.
 NSaved= 5 IEnMin= 5 EnMin= -2149.88150704839     IErMin= 5 ErrMin= 3.47D-04
 ErrMax= 3.47D-04  0.00D+00 EMaxC= 1.00D-01 BMatC= 1.26D-04 BMatP= 3.01D-03
 IDIUse=3 WtCom= 9.97D-01 WtEn= 3.47D-03
 Coeff-Com: -0.547D-02 0.181D-01 0.111D+00 0.284D+00 0.591D+00
 Coeff-En:   0.000D+00 0.000D+00 0.000D+00 0.000D+00 0.100D+01
 Coeff:     -0.545D-02 0.181D-01 0.111D+00 0.283D+00 0.593D+00
 Gap=     0.091 Goal=   None    Shift=    0.000
 RMSDP=1.97D-05 MaxDP=2.70D-03 DE=-2.98D-03 OVMax= 3.78D-03

 Cycle   6  Pass 1  IDiag  1:
 RMSU=  1.57D-05    CP:  9.36D-01  1.32D+00  8.79D-01  6.84D-01  7.75D-01
 E= -2149.88160908862     Delta-E=       -0.000102040229 Rises=F Damp=F
 DIIS: error= 1.49D-04 at cycle   6 NSaved=   6.
 NSaved= 6 IEnMin= 6 EnMin= -2149.88160908862     IErMin= 6 ErrMin= 1.49D-04
 ErrMax= 1.49D-04  0.00D+00 EMaxC= 1.00D-01 BMatC= 2.91D-05 BMatP= 1.26D-04
 IDIUse=3 WtCom= 9.99D-01 WtEn= 1.49D-03
 Coeff-Com: -0.113D-02 0.659D-03 0.288D-01 0.912D-01 0.357D+00 0.523D+00
 Coeff-En:   0.000D+00 0.000D+00 0.000D+00 0.000D+00 0.188D+00 0.812D+00
 Coeff:     -0.113D-02 0.658D-03 0.287D-01 0.911D-01 0.357D+00 0.523D+00
 Gap=     0.091 Goal=   None    Shift=    0.000
 RMSDP=7.33D-06 MaxDP=9.02D-04 DE=-1.02D-04 OVMax= 1.19D-03

 Cycle   7  Pass 1  IDiag  1:
 RMSU=  3.99D-06    CP:  9.36D-01  1.32D+00  8.79D-01  6.84D-01  8.11D-01
                    CP:  6.26D-01
 E= -2149.88163841599     Delta-E=       -0.000029327369 Rises=F Damp=F
 DIIS: error= 2.23D-05 at cycle   7 NSaved=   7.
 NSaved= 7 IEnMin= 7 EnMin= -2149.88163841599     IErMin= 7 ErrMin= 2.23D-05
 ErrMax= 2.23D-05  0.00D+00 EMaxC= 1.00D-01 BMatC= 9.79D-07 BMatP= 2.91D-05
 IDIUse=1 WtCom= 1.00D+00 WtEn= 0.00D+00
 Coeff-Com: -0.287D-03-0.505D-03 0.882D-02 0.304D-01 0.149D+00 0.259D+00
 Coeff-Com:  0.554D+00
 Coeff:     -0.287D-03-0.505D-03 0.882D-02 0.304D-01 0.149D+00 0.259D+00
 Coeff:      0.554D+00
 Gap=     0.091 Goal=   None    Shift=    0.000
 RMSDP=1.63D-06 MaxDP=1.45D-04 DE=-2.93D-05 OVMax= 2.29D-04

 Cycle   8  Pass 1  IDiag  1:
 RMSU=  1.33D-06    CP:  9.36D-01  1.32D+00  8.80D-01  6.84D-01  8.16D-01
                    CP:  6.55D-01  8.19D-01
 E= -2149.88163933940     Delta-E=       -0.000000923411 Rises=F Damp=F
 DIIS: error= 8.49D-06 at cycle   8 NSaved=   8.
 NSaved= 8 IEnMin= 8 EnMin= -2149.88163933940     IErMin= 8 ErrMin= 8.49D-06
 ErrMax= 8.49D-06  0.00D+00 EMaxC= 1.00D-01 BMatC= 9.61D-08 BMatP= 9.79D-07
 IDIUse=1 WtCom= 1.00D+00 WtEn= 0.00D+00
 Coeff-Com:  0.274D-04-0.387D-03 0.220D-03 0.150D-02 0.218D-01 0.505D-01
 Coeff-Com:  0.261D+00 0.665D+00
 Coeff:      0.274D-04-0.387D-03 0.220D-03 0.150D-02 0.218D-01 0.505D-01
 Coeff:      0.261D+00 0.665D+00
 Gap=     0.091 Goal=   None    Shift=    0.000
 RMSDP=5.84D-07 MaxDP=5.31D-05 DE=-9.23D-07 OVMax= 1.26D-04

 Cycle   9  Pass 1  IDiag  1:
 RMSU=  4.16D-07    CP:  9.36D-01  1.32D+00  8.80D-01  6.84D-01  8.20D-01
                    CP:  6.58D-01  8.83D-01  8.13D-01
 E= -2149.88163943453     Delta-E=       -0.000000095132 Rises=F Damp=F
 DIIS: error= 3.54D-06 at cycle   9 NSaved=   9.
 NSaved= 9 IEnMin= 9 EnMin= -2149.88163943453     IErMin= 9 ErrMin= 3.54D-06
 ErrMax= 3.54D-06  0.00D+00 EMaxC= 1.00D-01 BMatC= 1.61D-08 BMatP= 9.61D-08
 IDIUse=1 WtCom= 1.00D+00 WtEn= 0.00D+00
 Coeff-Com:  0.385D-04-0.176D-03-0.606D-03-0.184D-02-0.363D-03 0.581D-02
 Coeff-Com:  0.938D-01 0.366D+00 0.537D+00
 Coeff:      0.385D-04-0.176D-03-0.606D-03-0.184D-02-0.363D-03 0.581D-02
 Coeff:      0.938D-01 0.366D+00 0.537D+00
 Gap=     0.091 Goal=   None    Shift=    0.000
 RMSDP=2.12D-07 MaxDP=1.97D-05 DE=-9.51D-08 OVMax= 3.67D-05

 Cycle  10  Pass 1  IDiag  1:
 RMSU=  1.47D-07    CP:  9.36D-01  1.32D+00  8.80D-01  6.84D-01  8.20D-01
                    CP:  6.60D-01  8.90D-01  8.80D-01  7.40D-01
 E= -2149.88163945142     Delta-E=       -0.000000016886 Rises=F Damp=F
 DIIS: error= 9.67D-07 at cycle  10 NSaved=  10.
 NSaved=10 IEnMin=10 EnMin= -2149.88163945142     IErMin=10 ErrMin= 9.67D-07
 ErrMax= 9.67D-07  0.00D+00 EMaxC= 1.00D-01 BMatC= 1.48D-09 BMatP= 1.61D-08
 IDIUse=1 WtCom= 1.00D+00 WtEn= 0.00D+00
 Coeff-Com:  0.136D-04-0.182D-04-0.296D-03-0.113D-02-0.317D-02-0.466D-02
 Coeff-Com:  0.391D-02 0.725D-01 0.262D+00 0.671D+00
 Coeff:      0.136D-04-0.182D-04-0.296D-03-0.113D-02-0.317D-02-0.466D-02
 Coeff:      0.391D-02 0.725D-01 0.262D+00 0.671D+00
 Gap=     0.091 Goal=   None    Shift=    0.000
 RMSDP=7.19D-08 MaxDP=7.01D-06 DE=-1.69D-08 OVMax= 2.01D-05

 Cycle  11  Pass 1  IDiag  1:
 RMSU=  4.63D-08    CP:  9.36D-01  1.32D+00  8.80D-01  6.84D-01  8.21D-01
                    CP:  6.61D-01  8.96D-01  8.89D-01  8.18D-01  7.99D-01
 E= -2149.88163945327     Delta-E=       -0.000000001852 Rises=F Damp=F
 DIIS: error= 3.37D-07 at cycle  11 NSaved=  11.
 NSaved=11 IEnMin=11 EnMin= -2149.88163945327     IErMin=11 ErrMin= 3.37D-07
 ErrMax= 3.37D-07  0.00D+00 EMaxC= 1.00D-01 BMatC= 1.87D-10 BMatP= 1.48D-09
 IDIUse=1 WtCom= 1.00D+00 WtEn= 0.00D+00
 Coeff-Com:  0.502D-05 0.231D-05-0.117D-03-0.499D-03-0.171D-02-0.299D-02
 Coeff-Com: -0.495D-02 0.120D-01 0.102D+00 0.364D+00 0.531D+00
 Coeff:      0.502D-05 0.231D-05-0.117D-03-0.499D-03-0.171D-02-0.299D-02
 Coeff:     -0.495D-02 0.120D-01 0.102D+00 0.364D+00 0.531D+00
 Gap=     0.091 Goal=   None    Shift=    0.000
 RMSDP=2.25D-08 MaxDP=2.24D-06 DE=-1.85D-09 OVMax= 6.30D-06

 Cycle  12  Pass 1  IDiag  1:
 RMSU=  1.72D-08    CP:  9.36D-01  1.32D+00  8.80D-01  6.84D-01  8.21D-01
                    CP:  6.61D-01  8.97D-01  8.92D-01  8.22D-01  8.55D-01
                    CP:  7.91D-01
 E= -2149.88163945334     Delta-E=       -0.000000000073 Rises=F Damp=F
 DIIS: error= 8.83D-08 at cycle  12 NSaved=  12.
 NSaved=12 IEnMin=12 EnMin= -2149.88163945334     IErMin=12 ErrMin= 8.83D-08
 ErrMax= 8.83D-08  0.00D+00 EMaxC= 1.00D-01 BMatC= 1.37D-11 BMatP= 1.87D-10
 IDIUse=1 WtCom= 1.00D+00 WtEn= 0.00D+00
 Coeff-Com:  0.147D-06 0.338D-05-0.619D-07-0.359D-04-0.207D-03-0.521D-03
 Coeff-Com: -0.304D-02-0.764D-02 0.967D-03 0.506D-01 0.232D+00 0.728D+00
 Coeff:      0.147D-06 0.338D-05-0.619D-07-0.359D-04-0.207D-03-0.521D-03
 Coeff:     -0.304D-02-0.764D-02 0.967D-03 0.506D-01 0.232D+00 0.728D+00
 Gap=     0.091 Goal=   None    Shift=    0.000
 RMSDP=8.02D-09 MaxDP=4.75D-07 DE=-7.28D-11 OVMax= 1.92D-06

 Error on total polarization charges =  0.07408
 SCF Done:  E(RB3LYP) =  -2149.88163945     A.U. after   12 cycles
            NFock= 12  Conv=0.80D-08     -V/T= 2.0106
 KE= 2.127351715109D+03 PE=-1.541328871716D+04 EE= 5.930187782934D+03
 SMD-CDS (non-electrostatic) energy       (kcal/mol) =      -2.18
 (included in total energy above)
 Leave Link  502 at Thu Oct 15 11:07:27 2020, MaxMem=  2097152000 cpu:            8753.0 elap:             285.4
 (Enter /opt/bwhpc/common/chem/gaussian/g16.C.01/x86_64-Intel-avx2-source/g16/l801.exe)
 DoSCS=F DFT=T ScalE2(SS,OS)=  1.000000  1.000000
 ExpMin= 1.22D-01 ExpMax= 2.27D+03 ExpMxC= 3.41D+02 IAcc=3 IRadAn=         5 AccDes= 0.00D+00
 HarFok:  IExCor=  205 AccDes= 0.00D+00 IRadAn=         5 IDoV=-2 UseB2=F ITyADJ=14
 ICtDFT= 12500011 ScaDFX=  1.000000  1.000000  1.000000  1.000000
 GSVD:  LWork=       -2688 too small for GESVD, short by       12240 words or       12240 for optimal perf.
 Largest valence mixing into a core orbital is  8.03D-05
 Largest core mixing into a valence orbital is  4.88D-05
 Range of M.O.s used for correlation:    49   882
 NBasis=   882 NAE=   173 NBE=   173 NFC=    48 NFV=     0
 NROrb=    834 NOA=   125 NOB=   125 NVA=   709 NVB=   709

 **** Warning!!: The smallest alpha delta epsilon is  0.91058169D-01

 Leave Link  801 at Thu Oct 15 11:07:28 2020, MaxMem=  2097152000 cpu:              10.9 elap:               0.4
 (Enter /opt/bwhpc/common/chem/gaussian/g16.C.01/x86_64-Intel-avx2-source/g16/l914.exe)
 RHF ground state
 Two-electron integrals replicated using symmetry.
 MDV=  2097152000 DFT=T DoStab=F Mixed=T DoRPA=T DoScal=F NonHer=T
 NEqPCM:  Using non-equilibrium solvation (IEInf=1, Eps=  35.6880, EpsInf=   1.8069)
 Inv3:  Mode=1 IEnd=   124073283.
 Iteration    1 A*A^-1 deviation from unit magnitude is 1.11D-14 for   6397.
 Iteration    1 A*A^-1 deviation from orthogonality  is 3.59D-15 for   6425   6395.
 Iteration    1 A^-1*A deviation from unit magnitude is 1.11D-14 for   6397.
 Iteration    1 A^-1*A deviation from orthogonality  is 3.24D-15 for   6419   6339.
 Making orbital integer symmetry assigments:
 Orbital symmetries:
       Occupied  (A) (A) (A) (A) (A) (A) (A) (A) (A) (A) (A) (A)
                 (A) (A) (A) (A) (A) (A) (A) (A) (A) (A) (A) (A)
                 (A) (A) (A) (A) (A) (A) (A) (A) (A) (A) (A) (A)
                 (A) (A) (A) (A) (A) (A) (A) (A) (A) (A) (A) (A)
                 (A) (A) (A) (A) (A) (A) (A) (A) (A) (A) (A) (A)
                 (A) (A) (A) (A) (A) (A) (A) (A) (A) (A) (A) (A)
                 (A) (A) (A) (A) (A) (A) (A) (A) (A) (A) (A) (A)
                 (A) (A) (A) (A) (A) (A) (A) (A) (A) (A) (A) (A)
                 (A) (A) (A) (A) (A) (A) (A) (A) (A) (A) (A) (A)
                 (A) (A) (A) (A) (A) (A) (A) (A) (A) (A) (A) (A)
                 (A) (A) (A) (A) (A) (A) (A) (A) (A) (A) (A) (A)
                 (A) (A) (A) (A) (A) (A) (A) (A) (A) (A) (A) (A)
                 (A) (A) (A) (A) (A) (A) (A) (A) (A) (A) (A) (A)
                 (A) (A) (A) (A) (A) (A) (A) (A) (A) (A) (A) (A)
                 (A) (A) (A) (A) (A)
       Virtual   (A) (A) (A) (A) (A) (A) (A) (A) (A) (A) (A) (A)
                 (A) (A) (A) (A) (A) (A) (A) (A) (A) (A) (A) (A)
                 (A) (A) (A) (A) (A) (A) (A) (A) (A) (A) (A) (A)
                 (A) (A) (A) (A) (A) (A) (A) (A) (A) (A) (A) (A)
                 (A) (A) (A) (A) (A) (A) (A) (A) (A) (A) (A) (A)
                 (A) (A) (A) (A) (A) (A) (A) (A) (A) (A) (A) (A)
                 (A) (A) (A) (A) (A) (A) (A) (A) (A) (A) (A) (A)
                 (A) (A) (A) (A) (A) (A) (A) (A) (A) (A) (A) (A)
                 (A) (A) (A) (A) (A) (A) (A) (A) (A) (A) (A) (A)
                 (A) (A) (A) (A) (A) (A) (A) (A) (A) (A) (A) (A)
                 (A) (A) (A) (A) (A) (A) (A) (A) (A) (A) (A) (A)
                 (A) (A) (A) (A) (A) (A) (A) (A) (A) (A) (A) (A)
                 (A) (A) (A) (A) (A) (A) (A) (A) (A) (A) (A) (A)
                 (A) (A) (A) (A) (A) (A) (A) (A) (A) (A) (A) (A)
                 (A) (A) (A) (A) (A) (A) (A) (A) (A) (A) (A) (A)
                 (A) (A) (A) (A) (A) (A) (A) (A) (A) (A) (A) (A)
                 (A) (A) (A) (A) (A) (A) (A) (A) (A) (A) (A) (A)
                 (A) (A) (A) (A) (A) (A) (A) (A) (A) (A) (A) (A)
                 (A) (A) (A) (A) (A) (A) (A) (A) (A) (A) (A) (A)
                 (A) (A) (A) (A) (A) (A) (A) (A) (A) (A) (A) (A)
                 (A) (A) (A) (A) (A) (A) (A) (A) (A) (A) (A) (A)
                 (A) (A) (A) (A) (A) (A) (A) (A) (A) (A) (A) (A)
                 (A) (A) (A) (A) (A) (A) (A) (A) (A) (A) (A) (A)
                 (A) (A) (A) (A) (A) (A) (A) (A) (A) (A) (A) (A)
                 (A) (A) (A) (A) (A) (A) (A) (A) (A) (A) (A) (A)
                 (A) (A) (A) (A) (A) (A) (A) (A) (A) (A) (A) (A)
                 (A) (A) (A) (A) (A) (A) (A) (A) (A) (A) (A) (A)
                 (A) (A) (A) (A) (A) (A) (A) (A) (A) (A) (A) (A)
                 (A) (A) (A) (A) (A) (A) (A) (A) (A) (A) (A) (A)
                 (A) (A) (A) (A) (A) (A) (A) (A) (A) (A) (A) (A)
                 (A) (A) (A) (A) (A) (A) (A) (A) (A) (A) (A) (A)
                 (A) (A) (A) (A) (A) (A) (A) (A) (A) (A) (A) (A)
                 (A) (A) (A) (A) (A) (A) (A) (A) (A) (A) (A) (A)
                 (A) (A) (A) (A) (A) (A) (A) (A) (A) (A) (A) (A)
                 (A) (A) (A) (A) (A) (A) (A) (A) (A) (A) (A) (A)
                 (A) (A) (A) (A) (A) (A) (A) (A) (A) (A) (A) (A)
                 (A) (A) (A) (A) (A) (A) (A) (A) (A) (A) (A) (A)
                 (A) (A) (A) (A) (A) (A) (A) (A) (A) (A) (A) (A)
                 (A) (A) (A) (A) (A) (A) (A) (A) (A) (A) (A) (A)
                 (A) (A) (A) (A) (A) (A) (A) (A) (A) (A) (A) (A)
                 (A) (A) (A) (A) (A) (A) (A) (A) (A) (A) (A) (A)
                 (A) (A) (A) (A) (A) (A) (A) (A) (A) (A) (A) (A)
                 (A) (A) (A) (A) (A) (A) (A) (A) (A) (A) (A) (A)
                 (A) (A) (A) (A) (A) (A) (A) (A) (A) (A) (A) (A)
                 (A) (A) (A) (A) (A) (A) (A) (A) (A) (A) (A) (A)
                 (A) (A) (A) (A) (A) (A) (A) (A) (A) (A) (A) (A)
                 (A) (A) (A) (A) (A) (A) (A) (A) (A) (A) (A) (A)
                 (A) (A) (A) (A) (A) (A) (A) (A) (A) (A) (A) (A)
                 (A) (A) (A) (A) (A) (A) (A) (A) (A) (A) (A) (A)
                 (A) (A) (A) (A) (A) (A) (A) (A) (A) (A) (A) (A)
                 (A) (A) (A) (A) (A) (A) (A) (A) (A) (A) (A) (A)
                 (A) (A) (A) (A) (A) (A) (A) (A) (A) (A) (A) (A)
                 (A) (A) (A) (A) (A) (A) (A) (A) (A) (A) (A) (A)
                 (A) (A) (A) (A) (A) (A) (A) (A) (A) (A) (A) (A)
                 (A) (A) (A) (A) (A) (A) (A) (A) (A) (A) (A) (A)
                 (A) (A) (A) (A) (A) (A) (A) (A) (A) (A) (A) (A)
                 (A) (A) (A) (A) (A) (A) (A) (A) (A) (A) (A) (A)
                 (A) (A) (A) (A) (A) (A) (A) (A) (A) (A) (A) (A)
                 (A) (A) (A) (A) (A) (A) (A) (A) (A) (A) (A) (A)
                 (A)
   200 initial guesses have been made.
 Convergence on wavefunction:    0.001000000000000
 Davidson Disk Diagonalization:  ConvIn= 1.00D-03 SkipCon=T Conv= 1.00D-03.
 Max sub-space:  3000 roots to seek:   200 dimension of matrix:       177250
 Iteration     1 Dimension   200 NMult     0 NNew    200
 CISAX will form    32 AO SS matrices at one time.
 NMat=    32 NSing=    32 JSym2X= 0.
 FoFJK:  IHMeth= 1 ICntrl=       0 DoSepK=F KAlg= 0 I1Cent=           0 FoldK=F
 IRaf= 570000000 NMat=      64 IRICut=       1 DoRegI=T DoRafI=F ISym2E= 0 IDoP0=3 IntGTp=3.
 NMat=    32 NSing=    32 JSym2X= 0.
 NMat=    32 NSing=    32 JSym2X= 0.
 NMat=    32 NSing=    32 JSym2X= 0.
 NMat=    32 NSing=    32 JSym2X= 0.
 NMat=    32 NSing=    32 JSym2X= 0.
 NMat=     8 NSing=     8 JSym2X= 0.
 New state      3 was old state      4
 New state      4 was old state      3
 New state      9 was old state     10
 New state     10 was old state      9
 New state     12 was old state     13
 New state     13 was old state     12
 New state     15 was old state     16
 New state     16 was old state     18
 New state     17 was old state     15
 New state     18 was old state     17
 New state     22 was old state     26
 New state     24 was old state     22
 New state     25 was old state     28
 New state     26 was old state     25
 New state     27 was old state     24
 New state     28 was old state     29
 New state     29 was old state     31
 New state     31 was old state     32
 New state     32 was old state     40
 New state     33 was old state     39
 New state     34 was old state     37
 New state     35 was old state     36
 New state     36 was old state     38
 New state     37 was old state     33
 New state     38 was old state     41
 New state     39 was old state     35
 New state     40 was old state     42
 New state     41 was old state     56
 New state     42 was old state     34
 New state     43 was old state     57
 New state     44 was old state     47
 New state     45 was old state     44
 New state     46 was old state     45
 New state     47 was old state     46
 New state     48 was old state     62
 New state     49 was old state     54
 New state     50 was old state     48
 Excitation Energies [eV] at current iteration:
 Root      1 :     2.309995340074245
 Root      2 :     2.695513007739407
 Root      3 :     3.031759949804179
 Root      4 :     3.084559830657684
 Root      5 :     3.153139905811474
 Root      6 :     3.403646691190438
 Root      7 :     3.520182253035443
 Root      8 :     3.621221780579440
 Root      9 :     3.693238256681031
 Root     10 :     3.721861619365668
 Root     11 :     3.798960844838870
 Root     12 :     4.084884812292674
 Root     13 :     4.124608740359824
 Root     14 :     4.141330849497815
 Root     15 :     4.226125410092512
 Root     16 :     4.405280033652193
 Root     17 :     4.436447751269810
 Root     18 :     4.497338414425272
 Root     19 :     4.514705880772105
 Root     20 :     4.677352977490741
 Root     21 :     4.764867949932831
 Root     22 :     4.842932060573363
 Root     23 :     4.903901483547534
 Root     24 :     4.925922868339462
 Root     25 :     4.941294175429804
 Root     26 :     4.980727068195096
 Root     27 :     5.003837128361553
 Root     28 :     5.108022657789203
 Root     29 :     5.126773576280643
 Root     30 :     5.169894959841599
 Root     31 :     5.241921750068677
 Root     32 :     5.283018849981038
 Root     33 :     5.305588836252913
 Root     34 :     5.320835018610405
 Root     35 :     5.353137597169834
 Root     36 :     5.370732131515365
 Root     37 :     5.415130426078384
 Root     38 :     5.473181811057276
 Root     39 :     5.495130293351074
 Root     40 :     5.528445087183584
 Root     41 :     5.568000558112953
 Root     42 :     5.643279006342585
 Root     43 :     5.670549038839171
 Root     44 :     5.686951555981044
 Root     45 :     5.725669721667398
 Root     46 :     5.750122947301303
 Root     47 :     5.780521214982261
 Root     48 :     5.791227460571065
 Root     49 :     5.793351769812526
 Root     50 :     5.812641060291927
 Root     51 :     5.859632010382328
 Root     52 :     5.868202786349282
 Root     53 :     5.881546971982758
 Root     54 :     5.908444234539069
 Root     55 :     5.915646581164081
 Root     56 :     5.931829355476054
 Root     57 :     5.932131721317664
 Root     58 :     5.955392312646946
 Root     59 :     5.995646981004430
 Root     60 :     6.019976477061192
 Root     61 :     6.050844982282572
 Root     62 :     6.067349070681820
 Root     63 :     6.074938827583598
 Root     64 :     6.113559095702575
 Root     65 :     6.163643033184250
 Root     66 :     6.177802991386957
 Root     67 :     6.185590703240889
 Root     68 :     6.206247913905207
 Root     69 :     6.215306679664095
 Root     70 :     6.244069348895215
 Root     71 :     6.247604680358587
 Root     72 :     6.275117067703422
 Root     73 :     6.276150791592061
 Root     74 :     6.281993687906350
 Root     75 :     6.306328828024622
 Root     76 :     6.309319767321635
 Root     77 :     6.320163543286842
 Root     78 :     6.322835916603418
 Root     79 :     6.351900960466004
 Root     80 :     6.357565173669010
 Root     81 :     6.382969489467382
 Root     82 :     6.389565598381451
 Root     83 :     6.407726986839129
 Root     84 :     6.414413425488899
 Root     85 :     6.427831670961377
 Root     86 :     6.445540670432907
 Root     87 :     6.459404881416820
 Root     88 :     6.465873026025358
 Root     89 :     6.482385207695144
 Root     90 :     6.506619113823951
 Root     91 :     6.520417020844403
 Root     92 :     6.530619922681789
 Root     93 :     6.557589066665176
 Root     94 :     6.558063919695641
 Root     95 :     6.565613689515533
 Root     96 :     6.583371898995397
 Root     97 :     6.597348943983811
 Root     98 :     6.616766732513542
 Root     99 :     6.633261249174496
 Root    100 :     6.687337654901731
 Root    101 :     6.700033404660738
 Root    102 :     6.711956002491695
 Root    103 :     6.713319607238607
 Root    104 :     6.721810946979624
 Root    105 :     6.735132020053951
 Root    106 :     6.747701554747906
 Root    107 :     6.750137176812362
 Root    108 :     6.752483103269060
 Root    109 :     6.773895261020268
 Root    110 :     6.801196512039579
 Root    111 :     6.811669011047569
 Root    112 :     6.824002615322729
 Root    113 :     6.827778916905104
 Root    114 :     6.832179740466657
 Root    115 :     6.847569204552922
 Root    116 :     6.852064635292760
 Root    117 :     6.881094488144739
 Root    118 :     6.886731658775339
 Root    119 :     6.895456208524068
 Root    120 :     6.917960306639420
 Root    121 :     6.920302338309200
 Root    122 :     6.946542761044982
 Root    123 :     6.957393154879432
 Root    124 :     6.986152444171701
 Root    125 :     6.990625404148091
 Root    126 :     6.995163922358909
 Root    127 :     6.998202314565763
 Root    128 :     7.014327932431486
 Root    129 :     7.023319020108316
 Root    130 :     7.047464860607354
 Root    131 :     7.062642377139555
 Root    132 :     7.086976229093356
 Root    133 :     7.091977204643129
 Root    134 :     7.106547972444419
 Root    135 :     7.109544432677789
 Root    136 :     7.110261482042778
 Root    137 :     7.122643946258077
 Root    138 :     7.131656762381716
 Root    139 :     7.138673437543614
 Root    140 :     7.147472153191760
 Root    141 :     7.153219799788816
 Root    142 :     7.165601264286167
 Root    143 :     7.175711795412148
 Root    144 :     7.186683544836105
 Root    145 :     7.188817012632343
 Root    146 :     7.201071511047975
 Root    147 :     7.225199289617338
 Root    148 :     7.230595425535101
 Root    149 :     7.237076552722453
 Root    150 :     7.259445609032068
 Root    151 :     7.271315374383666
 Root    152 :     7.296171458914201
 Root    153 :     7.299182101205136
 Root    154 :     7.304499630220750
 Root    155 :     7.326324003040052
 Root    156 :     7.342442241762724
 Root    157 :     7.346001083311728
 Root    158 :     7.354091718825099
 Root    159 :     7.358751152048199
 Root    160 :     7.361417439560495
 Root    161 :     7.380905663502872
 Root    162 :     7.385012888243827
 Root    163 :     7.388553781271953
 Root    164 :     7.400001647519510
 Root    165 :     7.401428788510845
 Root    166 :     7.414544580114035
 Root    167 :     7.431145616538581
 Root    168 :     7.447775741549102
 Root    169 :     7.451287670499022
 Root    170 :     7.453131526397815
 Root    171 :     7.457643021354764
 Root    172 :     7.459721654273102
 Root    173 :     7.498713058223128
 Root    174 :     7.509581206475863
 Root    175 :     7.511979679252390
 Root    176 :     7.513893800019884
 Root    177 :     7.524822745345908
 Root    178 :     7.532722004994498
 Root    179 :     7.541345664334424
 Root    180 :     7.547855805214764
 Root    181 :     7.554246112088232
 Root    182 :     7.562961637995349
 Root    183 :     7.584882751706114
 Root    184 :     7.595334632006833
 Root    185 :     7.598839786689260
 Root    186 :     7.605866219195097
 Root    187 :     7.609627210131931
 Root    188 :     7.615656787918593
 Root    189 :     7.631164191984301
 Root    190 :     7.647615862920057
 Root    191 :     7.648825484663932
 Root    192 :     7.688348583802249
 Root    193 :     7.712843281389693
 Root    194 :     7.764063028634364
 Root    195 :     7.869460979022023
 Root    196 :     7.935174517655399
 Root    197 :     8.121201111725233
 Root    198 :     8.209082619882997
 Root    199 :     8.523381720237143
 Root    200 :     8.809250254271127
 Iteration     2 Dimension   300 NMult   200 NNew    100
 CISAX will form    32 AO SS matrices at one time.
 NMat=    32 NSing=    32 JSym2X= 0.
 NMat=    32 NSing=    32 JSym2X= 0.
 NMat=    32 NSing=    32 JSym2X= 0.
 NMat=     4 NSing=     4 JSym2X= 0.
 Root      1 not converged, maximum delta is    0.045780502028299
 Root      2 not converged, maximum delta is    0.105907393423396
 New state      3 was old state      4
 Root      3 not converged, maximum delta is    0.403032244961475
 New state      4 was old state      3
 Root      4 not converged, maximum delta is    0.335516394509719
 Root      5 not converged, maximum delta is    0.115584274596404
 Root      6 not converged, maximum delta is    0.148164853282995
 Root      7 not converged, maximum delta is    0.077500271076352
 Root      8 not converged, maximum delta is    0.122317425047481
 Root      9 not converged, maximum delta is    0.344466824994202
 Root     10 not converged, maximum delta is    0.306324627795357
 Root     11 not converged, maximum delta is    0.060009140878358
 New state     12 was old state     13
 Root     12 not converged, maximum delta is    0.291189171518332
 New state     13 was old state     12
 Root     13 not converged, maximum delta is    0.197274199640183
 Root     14 not converged, maximum delta is    0.139880896016474
 Root     15 not converged, maximum delta is    0.136495060009251
 Root     16 not converged, maximum delta is    0.354993340134622
 Root     17 not converged, maximum delta is    0.285240896568018
 Root     18 not converged, maximum delta is    0.128606680933278
 Root     19 not converged, maximum delta is    0.058326512334989
 Root     20 not converged, maximum delta is    0.195066352673707
 Root     21 not converged, maximum delta is    0.210123426173499
 Root     22 not converged, maximum delta is    0.174040879753254
 Root     23 not converged, maximum delta is    0.168700217195685
 Root     24 not converged, maximum delta is    0.122467125611826
 Root     25 not converged, maximum delta is    0.314895120012987
 Root     26 not converged, maximum delta is    0.295893247810619
 Root     27 not converged, maximum delta is    0.332686739899626
 New state     28 was old state     29
 Root     28 not converged, maximum delta is    0.216259972104525
 New state     29 was old state     28
 Root     29 not converged, maximum delta is    0.177667240226548
 Root     30 not converged, maximum delta is    0.333415447953474
 New state     31 was old state     34
 Root     31 not converged, maximum delta is    0.431994989286820
 New state     32 was old state     31
 Root     32 not converged, maximum delta is    0.236154042896489
 New state     33 was old state     32
 Root     33 not converged, maximum delta is    0.207302083947455
 New state     34 was old state     33
 Root     34 not converged, maximum delta is    0.219594210580776
 Root     35 not converged, maximum delta is    0.180664223760354
 New state     36 was old state     37
 Root     36 not converged, maximum delta is    0.290057860221305
 New state     37 was old state     36
 Root     37 not converged, maximum delta is    0.230845851058122
 New state     38 was old state     40
 Root     38 not converged, maximum delta is    0.399097840578396
 Root     39 not converged, maximum delta is    0.272246069741871
 New state     40 was old state     38
 Root     40 not converged, maximum delta is    0.268036484348049
 New state     41 was old state     42
 Root     41 not converged, maximum delta is    0.313086246329013
 New state     42 was old state     41
 Root     42 not converged, maximum delta is    0.034002303096785
 New state     43 was old state     44
 Root     43 not converged, maximum delta is    0.277096312992417
 New state     44 was old state     43
 Root     44 not converged, maximum delta is    0.026301146139173
 New state     45 was old state     46
 Root     45 not converged, maximum delta is    0.499983558804819
 New state     46 was old state     45
 Root     46 not converged, maximum delta is    0.205340205881714
 New state     47 was old state     49
 Root     47 not converged, maximum delta is    0.299836642687820
 New state     48 was old state     47
 Root     48 not converged, maximum delta is    0.273452768823599
 New state     49 was old state     50
 Root     49 not converged, maximum delta is    0.267116902793211
 New state     50 was old state     51
 Root     50 not converged, maximum delta is    0.391312475688507
 Excitation Energies [eV] at current iteration:
 Root      1 :     2.157747830556808   Change is   -0.152247509517437
 Root      2 :     2.663799248466357   Change is   -0.031713759273050
 Root      3 :     2.881294865746063   Change is   -0.203264964911621
 Root      4 :     2.980951091431685   Change is   -0.050808858372493
 Root      5 :     3.063204643347311   Change is   -0.089935262464164
 Root      6 :     3.321529330927809   Change is   -0.082117360262630
 Root      7 :     3.395486120243970   Change is   -0.124696132791473
 Root      8 :     3.536519054392243   Change is   -0.084702726187196
 Root      9 :     3.557652952644531   Change is   -0.135585304036500
 Root     10 :     3.644928967477805   Change is   -0.076932651887862
 Root     11 :     3.731955942705000   Change is   -0.067004902133870
 Root     12 :     3.946496400723832   Change is   -0.178112339635993
 Root     13 :     4.020458512682232   Change is   -0.064426299610442
 Root     14 :     4.068706541757575   Change is   -0.072624307740240
 Root     15 :     4.172053059976232   Change is   -0.054072350116279
 Root     16 :     4.226710309725373   Change is   -0.178569723926820
 Root     17 :     4.352940073657072   Change is   -0.083507677612738
 Root     18 :     4.398885685532151   Change is   -0.098452728893121
 Root     19 :     4.454510721007057   Change is   -0.060195159765049
 Root     20 :     4.573464002695700   Change is   -0.103888974795041
 Root     21 :     4.666053603245135   Change is   -0.098814346687696
 Root     22 :     4.743320820062001   Change is   -0.099611240511362
 Root     23 :     4.791305942605493   Change is   -0.112595540942041
 Root     24 :     4.813914575622994   Change is   -0.112008292716467
 Root     25 :     4.849685898404053   Change is   -0.091608277025751
 Root     26 :     4.870886208852284   Change is   -0.109840859342812
 Root     27 :     4.893147519331243   Change is   -0.110689609030311
 Root     28 :     4.965808470260738   Change is   -0.160965106019905
 Root     29 :     5.010029315403769   Change is   -0.097993342385434
 Root     30 :     5.087107199754063   Change is   -0.082787760087536
 Root     31 :     5.131827993515572   Change is   -0.189007025094834
 Root     32 :     5.180259401161955   Change is   -0.061662348906723
 Root     33 :     5.203535719004329   Change is   -0.079483130976709
 Root     34 :     5.254458453865226   Change is   -0.051130382387687
 Root     35 :     5.274668415668700   Change is   -0.078469181501133
 Root     36 :     5.283186922166281   Change is   -0.131943503912103
 Root     37 :     5.310987820107758   Change is   -0.059744311407607
 Root     38 :     5.322803626281997   Change is   -0.205641460901586
 Root     39 :     5.372835522040742   Change is   -0.122294771310331
 Root     40 :     5.391550103748992   Change is   -0.081631707308284
 Root     41 :     5.535542739965559   Change is   -0.107736266377025
 Root     42 :     5.537645174000215   Change is   -0.030355384112738
 Root     43 :     5.581217755447108   Change is   -0.105733800533936
 Root     44 :     5.638276383882987   Change is   -0.032272654956184
 Root     45 :     5.645910548659737   Change is   -0.104212398641567
 Root     46 :     5.667823724847251   Change is   -0.057845996820147
 Root     47 :     5.687509832409981   Change is   -0.105841937402545
 Root     48 :     5.697073099100966   Change is   -0.083448115881295
 Root     49 :     5.716007744654062   Change is   -0.096633315637864
 Root     50 :     5.754716786614146   Change is   -0.104915223768182
 Iteration     3 Dimension   400 NMult   300 NNew    100
 CISAX will form    32 AO SS matrices at one time.
 NMat=    32 NSing=    32 JSym2X= 0.
 NMat=    32 NSing=    32 JSym2X= 0.
 NMat=    32 NSing=    32 JSym2X= 0.
 NMat=     4 NSing=     4 JSym2X= 0.
 Root      1 not converged, maximum delta is    0.001245578878577
 Root      2 not converged, maximum delta is    0.006026353905544
 Root      3 not converged, maximum delta is    0.005674431904724
 Root      4 not converged, maximum delta is    0.003874971603692
 Root      5 not converged, maximum delta is    0.001445202768434
 Root      6 not converged, maximum delta is    0.006073244880988
 Root      7 not converged, maximum delta is    0.002298266520773
 Root      8 not converged, maximum delta is    0.004781300653054
 Root      9 not converged, maximum delta is    0.002495828967845
 Root     10 not converged, maximum delta is    0.002190977759648
 Root     11 not converged, maximum delta is    0.002133544179383
 Root     12 not converged, maximum delta is    0.008083786887285
 Root     13 not converged, maximum delta is    0.003186302517624
 Root     14 not converged, maximum delta is    0.002523560425875
 Root     15 not converged, maximum delta is    0.003214396258435
 Root     16 not converged, maximum delta is    0.006623991727929
 Root     17 not converged, maximum delta is    0.005795814347800
 Root     18 not converged, maximum delta is    0.010824959560299
 Root     19 not converged, maximum delta is    0.002888285157698
 Root     20 not converged, maximum delta is    0.010542373348562
 Root     21 not converged, maximum delta is    0.010227966762021
 Root     22 not converged, maximum delta is    0.007962874009215
 Root     23 not converged, maximum delta is    0.004361746031345
 Root     24 not converged, maximum delta is    0.005926886555954
 Root     25 not converged, maximum delta is    0.009345900960909
 Root     26 not converged, maximum delta is    0.005467794032811
 Root     27 not converged, maximum delta is    0.008341473182595
 Root     28 not converged, maximum delta is    0.007649104532401
 Root     29 not converged, maximum delta is    0.009404245449870
 Root     30 not converged, maximum delta is    0.008155383794915
 Root     31 not converged, maximum delta is    0.005974072914822
 Root     32 not converged, maximum delta is    0.008102713983678
 Root     33 not converged, maximum delta is    0.011404865001662
 Root     34 not converged, maximum delta is    0.034746522882357
 Root     35 not converged, maximum delta is    0.073900895904725
 Root     36 not converged, maximum delta is    0.051378504499302
 Root     37 not converged, maximum delta is    0.079132844486797
 Root     38 not converged, maximum delta is    0.103908172037533
 Root     39 not converged, maximum delta is    0.033560659685254
 Root     40 not converged, maximum delta is    0.031329086404804
 Root     41 not converged, maximum delta is    0.031512800429043
 Root     42 not converged, maximum delta is    0.025427343364803
 Root     43 not converged, maximum delta is    0.019930639530004
 New state     44 was old state     45
 Root     44 not converged, maximum delta is    0.049426559800033
 New state     45 was old state     44
 Root     45 not converged, maximum delta is    0.025832177672298
 Root     46 not converged, maximum delta is    0.030931305594301
 Root     47 not converged, maximum delta is    0.075763220885789
 Root     48 not converged, maximum delta is    0.076910882084627
 Root     49 not converged, maximum delta is    0.072404896945675
 Root     50 not converged, maximum delta is    0.087620842126071
 Excitation Energies [eV] at current iteration:
 Root      1 :     2.154587372539705   Change is   -0.003160458017103
 Root      2 :     2.662628331230695   Change is   -0.001170917235662
 Root      3 :     2.875879019395557   Change is   -0.005415846350506
 Root      4 :     2.979127440237662   Change is   -0.001823651194023
 Root      5 :     3.061425916206691   Change is   -0.001778727140620
 Root      6 :     3.319345844487435   Change is   -0.002183486440374
 Root      7 :     3.393687999736250   Change is   -0.001798120507721
 Root      8 :     3.534285238669451   Change is   -0.002233815722792
 Root      9 :     3.554529557975431   Change is   -0.003123394669101
 Root     10 :     3.643417264829808   Change is   -0.001511702647997
 Root     11 :     3.730500471793836   Change is   -0.001455470911164
 Root     12 :     3.941354792877073   Change is   -0.005141607846759
 Root     13 :     4.018704405986554   Change is   -0.001754106695678
 Root     14 :     4.067480016028267   Change is   -0.001226525729307
 Root     15 :     4.171244667087912   Change is   -0.000808392888320
 Root     16 :     4.223484197029655   Change is   -0.003226112695718
 Root     17 :     4.351600436619448   Change is   -0.001339637037625
 Root     18 :     4.395686621885943   Change is   -0.003199063646208
 Root     19 :     4.453203586728819   Change is   -0.001307134278238
 Root     20 :     4.569194608087255   Change is   -0.004269394608445
 Root     21 :     4.662732634559723   Change is   -0.003320968685412
 Root     22 :     4.740137369920602   Change is   -0.003183450141400
 Root     23 :     4.787161623624199   Change is   -0.004144318981293
 Root     24 :     4.809933420902733   Change is   -0.003981154720262
 Root     25 :     4.846911594166357   Change is   -0.002774304237697
 Root     26 :     4.867991940403542   Change is   -0.002894268448742
 Root     27 :     4.891094187435068   Change is   -0.002053331896175
 Root     28 :     4.961179186443657   Change is   -0.004629283817081
 Root     29 :     5.006370245085411   Change is   -0.003659070318359
 Root     30 :     5.084875340063020   Change is   -0.002231859691043
 Root     31 :     5.128709906237527   Change is   -0.003118087278044
 Root     32 :     5.178328819243274   Change is   -0.001930581918681
 Root     33 :     5.200980202679737   Change is   -0.002555516324592
 Root     34 :     5.252211696615246   Change is   -0.002246757249980
 Root     35 :     5.271307821914172   Change is   -0.003360593754528
 Root     36 :     5.279981286934475   Change is   -0.003205635231806
 Root     37 :     5.309119135180918   Change is   -0.001868684926840
 Root     38 :     5.313589289780481   Change is   -0.009214336501516
 Root     39 :     5.367294615766501   Change is   -0.005540906274242
 Root     40 :     5.385459426476916   Change is   -0.006090677272076
 Root     41 :     5.529881411701641   Change is   -0.005661328263918
 Root     42 :     5.536944079410029   Change is   -0.000701094590186
 Root     43 :     5.577544296184634   Change is   -0.003673459262474
 Root     44 :     5.633688636669448   Change is   -0.012221911990289
 Root     45 :     5.637464862814343   Change is   -0.000811521068644
 Root     46 :     5.664788836202520   Change is   -0.003034888644730
 Root     47 :     5.683114749059373   Change is   -0.004395083350609
 Root     48 :     5.691527623953164   Change is   -0.005545475147802
 Root     49 :     5.707220068918139   Change is   -0.008787675735923
 Root     50 :     5.746743106253218   Change is   -0.007973680360928
 Iteration     4 Dimension   500 NMult   400 NNew    100
 CISAX will form    32 AO SS matrices at one time.
 NMat=    32 NSing=    32 JSym2X= 0.
 NMat=    32 NSing=    32 JSym2X= 0.
 NMat=    32 NSing=    32 JSym2X= 0.
 NMat=     4 NSing=     4 JSym2X= 0.
 Root      1 has converged.
 Root      2 has converged.
 Root      3 has converged.
 Root      4 has converged.
 Root      5 has converged.
 Root      6 has converged.
 Root      7 has converged.
 Root      8 has converged.
 Root      9 has converged.
 Root     10 has converged.
 Root     11 has converged.
 Root     12 has converged.
 Root     13 has converged.
 Root     14 has converged.
 Root     15 has converged.
 Root     16 has converged.
 Root     17 has converged.
 Root     18 has converged.
 Root     19 has converged.
 Root     20 has converged.
 Root     21 has converged.
 Root     22 has converged.
 Root     23 has converged.
 Root     24 has converged.
 Root     25 has converged.
 Root     26 has converged.
 Root     27 has converged.
 Root     28 has converged.
 Root     29 has converged.
 Root     30 has converged.
 Root     31 has converged.
 Root     32 has converged.
 Root     33 has converged.
 Root     34 not converged, maximum delta is    0.002576146564629
 Root     35 not converged, maximum delta is    0.004774464067221
 Root     36 not converged, maximum delta is    0.003942077029432
 Root     37 not converged, maximum delta is    0.010565146446671
 Root     38 not converged, maximum delta is    0.011899588432950
 Root     39 not converged, maximum delta is    0.002883009016778
 Root     40 not converged, maximum delta is    0.002877253335252
 Root     41 not converged, maximum delta is    0.001133350823424
 Root     42 has converged.
 Root     43 not converged, maximum delta is    0.001226919148116
 Root     44 not converged, maximum delta is    0.004383116583447
 Root     45 not converged, maximum delta is    0.003005527168325
 Root     46 not converged, maximum delta is    0.002946871142599
 Root     47 not converged, maximum delta is    0.005625052194338
 Root     48 not converged, maximum delta is    0.005389506494438
 Root     49 not converged, maximum delta is    0.005077935965762
 Root     50 not converged, maximum delta is    0.017040454190337
 Excitation Energies [eV] at current iteration:
 Root      1 :     2.154466836841070   Change is   -0.000120535698635
 Root      2 :     2.662587589905484   Change is   -0.000040741325211
 Root      3 :     2.875652442997477   Change is   -0.000226576398080
 Root      4 :     2.979074478093625   Change is   -0.000052962144037
 Root      5 :     3.061376728404071   Change is   -0.000049187802620
 Root      6 :     3.319267682055743   Change is   -0.000078162431692
 Root      7 :     3.393615122949450   Change is   -0.000072876786799
 Root      8 :     3.534175144315387   Change is   -0.000110094354064
 Root      9 :     3.554396924974449   Change is   -0.000132633000982
 Root     10 :     3.643359689235532   Change is   -0.000057575594276
 Root     11 :     3.730419628441991   Change is   -0.000080843351845
 Root     12 :     3.941136628660246   Change is   -0.000218164216827
 Root     13 :     4.018616354709717   Change is   -0.000088051276837
 Root     14 :     4.067430339329229   Change is   -0.000049676699038
 Root     15 :     4.171189731918520   Change is   -0.000054935169392
 Root     16 :     4.223317221776228   Change is   -0.000166975253427
 Root     17 :     4.351525763830306   Change is   -0.000074672789141
 Root     18 :     4.395566190144105   Change is   -0.000120431741839
 Root     19 :     4.453101225019426   Change is   -0.000102361709393
 Root     20 :     4.569003064472595   Change is   -0.000191543614661
 Root     21 :     4.662511572075467   Change is   -0.000221062484256
 Root     22 :     4.739940474770648   Change is   -0.000196895149953
 Root     23 :     4.786913092913903   Change is   -0.000248530710296
 Root     24 :     4.809706547358773   Change is   -0.000226873543960
 Root     25 :     4.846758525583336   Change is   -0.000153068583020
 Root     26 :     4.867840875387548   Change is   -0.000151065015993
 Root     27 :     4.890994272032461   Change is   -0.000099915402607
 Root     28 :     4.960941180793115   Change is   -0.000238005650543
 Root     29 :     5.006201035473378   Change is   -0.000169209612032
 Root     30 :     5.084758809710773   Change is   -0.000116530352247
 Root     31 :     5.128536745133370   Change is   -0.000173161104158
 Root     32 :     5.178192807406998   Change is   -0.000136011836276
 Root     33 :     5.200826587698200   Change is   -0.000153614981537
 Root     34 :     5.252050294719247   Change is   -0.000161401896000
 Root     35 :     5.271076956898947   Change is   -0.000230865015225
 Root     36 :     5.279760620528247   Change is   -0.000220666406228
 Root     37 :     5.308966578744021   Change is   -0.000152556436897
 Root     38 :     5.313116554654101   Change is   -0.000472735126380
 Root     39 :     5.366897512045626   Change is   -0.000397103720875
 Root     40 :     5.385007303354684   Change is   -0.000452123122231
[...]
     2  C    0.194072
     3  C   -0.068011
     4  C    0.038474
     5  C    0.250616
     6  C   -0.189518
     9  O   -0.331253
    11  C    0.278980
    15  O   -0.329581
    16  C    0.286201
    20  C   -0.025909
    21  C   -0.024517
    23  C    0.034585
    25  C   -0.196490
    26  C    0.226291
    27  C    0.034794
    28  C    0.226056
    29  C   -0.196359
    32  O   -0.331152
    33  C    0.289570
    37  O   -0.330814
    38  C    0.289965
    42  C   -0.024119
    43  C   -0.024944
    45  C    0.035529
    47  C   -0.196174
    48  C    0.226952
    49  C    0.034263
    50  C    0.226418
    51  C   -0.195621
    54  O   -0.330759
    55  O   -0.330818
    56  C    0.290204
    60  C    0.290021
    64  C   -0.022043
    65  C   -0.024379
    67  C    0.039179
    69  C   -0.195521
    70  C    0.225052
    71  C    0.012221
    72  C    0.218993
    73  C   -0.188815
    76  O   -0.330588
    77  O   -0.330662
    78  C    0.289340
    82  C    0.289455
    86  C   -0.025900
    87  C    0.015881
 Electronic spatial extent (au):  <R**2>=          79154.1676
 Charge=             -0.0000 electrons
 Dipole moment (field-independent basis, Debye):
    X=             -0.8633    Y=              0.2853    Z=             -0.0094  Tot=              0.9092
 Quadrupole moment (field-independent basis, Debye-Ang):
   XX=           -277.0964   YY=           -194.7017   ZZ=           -294.3425
   XY=            -29.9112   XZ=              0.1780   YZ=              0.0577
 Traceless Quadrupole moment (field-independent basis, Debye-Ang):
   XX=            -21.7162   YY=             60.6785   ZZ=            -38.9623
   XY=            -29.9112   XZ=              0.1780   YZ=              0.0577
 Octapole moment (field-independent basis, Debye-Ang**2):
  XXX=           -219.0815  YYY=              3.6097  ZZZ=              0.2002  XYY=            -29.2663
  XXY=             63.0407  XXZ=             -9.2366  XZZ=            -16.7522  YZZ=              0.5085
  YYZ=             -0.1377  XYZ=             15.6654
 Hexadecapole moment (field-independent basis, Debye-Ang**3):
 XXXX=         -97886.6527 YYYY=          -6202.5423 ZZZZ=           -365.1203 XXXY=          -4862.7377
 XXXZ=             17.1230 YYYX=           -137.7140 YYYZ=             -0.2748 ZZZX=              4.3406
 ZZZY=             -0.0653 XXYY=         -13020.3479 XXZZ=         -17486.9436 YYZZ=          -1364.5740
 XXYZ=              6.8324 YYXZ=              3.1581 ZZXY=             24.4980
 N-N= 5.205867579664D+03 E-N=-1.541328871002D+04  KE= 2.127351715109D+03
 Leave Link  601 at Thu Oct 15 12:06:29 2020, MaxMem=  2097152000 cpu:              26.6 elap:               1.0
 (Enter /opt/bwhpc/common/chem/gaussian/g16.C.01/x86_64-Intel-avx2-source/g16/l9999.exe)
 Electronic transition elements 
                 1             2             3             4             5 
      1  -0.214980D+04 -0.214978D+04 -0.214978D+04 -0.214977D+04 -0.214977D+04
      2  -0.706135D+01  0.303239D+00 -0.169142D+00 -0.181368D+00 -0.441120D-02
      3  -0.527874D+00  0.441520D-01 -0.813765D-02 -0.433239D-02  0.415007D-03
      4   0.564987D-02 -0.223144D-01 -0.471074D-01  0.842873D-02  0.619075D-03
      5   0.556329D+00 -0.302715D-01  0.178024D-01  0.180656D-01  0.108032D-02
      6   0.438044D-01 -0.427779D-02  0.123743D-02  0.122370D-02 -0.525241D-03
      7  -0.460843D-03  0.228493D-02  0.502346D-02 -0.955803D-03 -0.533148D-04
      8  -0.644633D-03  0.369343D-03  0.973838D-03 -0.563298D-02  0.454888D-03
      9  -0.661915D-01  0.900516D-02  0.937200D-02 -0.286458D-01  0.181466D-03
     10  -0.698946D-01  0.685395D+00  0.764674D+00 -0.151812D+00 -0.178732D+00
     11  -0.116655D+01  0.474869D+01  0.125020D+02 -0.174896D+01 -0.568962D+00
     12   0.400653D-01  0.592315D-01 -0.800400D-01  0.339566D-01 -0.288693D-01
     13  -0.175082D-03 -0.992815D-02  0.331082D-02 -0.134447D-04  0.236206D-02
     14  -0.690347D-01  0.613208D+00  0.915374D+00 -0.163084D+00 -0.140882D+00
     15   0.413621D-01 -0.924627D-02 -0.146023D-01  0.410393D-01 -0.197899D-02
     16   0.791986D-02 -0.371581D-03  0.861866D-03  0.551327D-02 -0.693060D-03
                 6             7             8             9            10 
      1  -0.214976D+04 -0.214976D+04 -0.214975D+04 -0.214975D+04 -0.214975D+04
      2  -0.104689D+01  0.223250D+01 -0.109647D+00 -0.278652D-01  0.208417D+00
      3  -0.651328D+00 -0.496554D+00  0.208804D+00 -0.140201D-01  0.288909D-01
      4   0.269157D-02 -0.117943D-02  0.604231D-03  0.810486D-02 -0.162853D-01
      5   0.139070D+00 -0.270605D+00  0.138599D-01  0.304580D-02 -0.295323D-01
      6   0.852431D-01  0.718154D-01 -0.309067D-01  0.235309D-02 -0.300215D-02
      7  -0.351910D-03  0.120809D-03 -0.592291D-04 -0.821568D-03  0.225284D-02
      8  -0.244118D-03  0.351690D-02  0.923675D-03 -0.112915D-02  0.197861D-03
      9  -0.474752D-01  0.237693D-01  0.217877D-01 -0.602616D-02  0.103557D-01
     10  -0.880806D-01 -0.971638D-01  0.108103D+00  0.137124D+01  0.767108D+00
     11  -0.132549D+00  0.592644D+00 -0.103639D+01 -0.696951D+01  0.494843D+01
     12   0.660394D-01 -0.418776D-01 -0.262014D-01  0.213953D+00  0.602597D-01
     13  -0.205645D-02  0.612147D-03  0.211859D-03  0.574980D-03 -0.900193D-02
     14  -0.983116D-01 -0.118827D+00  0.625719D-01  0.113565D+01  0.686856D+00
     15   0.617512D-01 -0.232965D-01 -0.464890D-01  0.123084D-01 -0.117398D-01
     16   0.854820D-03 -0.577035D-02  0.153323D-02 -0.341549D-03  0.118688D-02
                11            12            13            14            15 
      1  -0.214974D+04 -0.214974D+04 -0.214973D+04 -0.214973D+04 -0.214973D+04
      2  -0.441455D-01  0.655990D+00  0.505269D-01  0.885020D-01 -0.107559D+00
      3   0.971569D-01  0.145698D-01  0.123990D-01 -0.225060D-01  0.126706D-02
      4  -0.328100D-02 -0.284170D-02  0.108809D-01  0.238566D-02  0.531333D-02
      5   0.571045D-02 -0.923430D-01 -0.843118D-02 -0.132398D-01  0.152680D-01
      6  -0.150714D-01 -0.239638D-02 -0.224330D-02  0.386251D-02  0.366246D-04
      7   0.450893D-03  0.417034D-03 -0.164254D-02 -0.249668D-03 -0.777671D-03
      8   0.464536D-02 -0.130194D-02 -0.482877D-03 -0.900503D-03 -0.121755D-03
      9   0.188745D-01  0.279014D-01 -0.719326D-02 -0.224582D-02 -0.750048D-02
     10  -0.140823D+00  0.231794D+00 -0.466794D+00  0.435786D+00  0.107306D+00
     11   0.114126D+01  0.156346D+00 -0.321136D+01 -0.303803D+01 -0.295565D+01
     12  -0.563701D-01 -0.581158D-01  0.175788D+00 -0.135679D+00  0.497814D-01
     13   0.933281D-03 -0.312224D-02 -0.104201D-01 -0.506357D-02  0.254124D-03
     14  -0.926231D-01  0.118623D+00 -0.694905D+00  0.613593D+00  0.109528D+00
     15  -0.193623D-01 -0.673576D-01  0.131741D-01  0.316747D-02  0.163295D-01
     16  -0.585789D-02  0.577027D-02 -0.228283D-02 -0.936987D-04 -0.156091D-02
                16            17            18            19            20 
      1  -0.214973D+04 -0.214972D+04 -0.214972D+04 -0.214972D+04 -0.214971D+04
      2   0.101245D+01  0.492653D+00 -0.505266D+00 -0.534831D-02 -0.186110D+00
      3  -0.271630D+00  0.135140D+00 -0.481612D-01 -0.471536D-01 -0.461787D-02
      4  -0.211082D-02  0.118881D-02  0.425981D-02 -0.218278D-02  0.131174D-01
      5  -0.153083D+00 -0.885985D-01  0.863529D-01 -0.122723D-02  0.326439D-01
      6   0.481117D-01 -0.215427D-01  0.711113D-02  0.885214D-02  0.252930D-03
      7   0.323388D-03 -0.217559D-03 -0.690432D-03  0.448263D-03 -0.220242D-02
      8  -0.367751D-03 -0.671353D-03 -0.216637D-02 -0.765937D-03 -0.498858D-02
      9   0.108125D-01  0.162063D-01 -0.275572D-01 -0.262894D-02 -0.275446D-01
     10   0.256140D+00 -0.115544D+00 -0.993440D-01  0.364359D+00  0.772911D-01
     11   0.372256D+00 -0.565919D+00 -0.134926D+01  0.438275D+00 -0.639007D+01
     12  -0.569828D-02 -0.417405D-01  0.188627D+00  0.140898D+00  0.237357D+00
     13  -0.121474D-02  0.493822D-02 -0.793687D-03 -0.572487D-02  0.698544D-02
     14   0.159665D+00 -0.134524D+00 -0.162792D+00  0.273485D+00 -0.388973D-01
     15  -0.229763D-01 -0.217520D-01  0.393895D-01  0.270325D-02  0.344485D-01
     16   0.475289D-03 -0.101287D-02 -0.158494D-02  0.280777D-02 -0.536359D-04
                21            22            23            24            25 
      1  -0.214971D+04 -0.214971D+04 -0.214971D+04 -0.214970D+04 -0.214970D+04
      2  -0.149768D+00  0.250231D+00 -0.372852D+00  0.284574D+00 -0.255389D+00
      3  -0.376763D+00  0.485009D+00 -0.107679D+01  0.597668D+00 -0.519524D+00
      4   0.367750D-02  0.284267D-02 -0.886955D-02 -0.264224D-01 -0.271158D-02
      5   0.164525D-01 -0.375642D-01  0.479811D-01 -0.407519D-01  0.359509D-01
      6   0.678322D-01 -0.864760D-01  0.195301D+00 -0.109225D+00  0.957608D-01
      7  -0.622543D-03 -0.460945D-03  0.156557D-02  0.463083D-02  0.473887D-03
      8   0.485617D-02 -0.760196D-02 -0.226922D-02  0.392458D-02  0.898897D-03
      9  -0.815651D-02 -0.727545D-02 -0.573394D-01  0.530239D-01 -0.262410D-01
     10  -0.211084D+00 -0.207894D+00  0.144643D+01  0.340194D+01  0.224605D+00
     11  -0.169584D+01 -0.994082D+00 -0.166296D+00  0.226341D+01  0.162520D+01
     12   0.818736D-01  0.104978D+00  0.139690D+00  0.117394D+00 -0.282972D-01
     13   0.147926D-02 -0.254860D-02 -0.262360D-03  0.420642D-02  0.266398D-02
     14  -0.166076D+00 -0.194509D+00  0.121112D+01  0.299568D+01  0.251435D+00
     15   0.163175D-01  0.172429D-01  0.485701D-01 -0.520572D-01  0.324159D-01
     16  -0.814167D-02  0.362240D-02  0.122214D-02 -0.106737D-02 -0.136522D-03
                26            27            28            29            30 
      1  -0.214970D+04 -0.214970D+04 -0.214970D+04 -0.214970D+04 -0.214969D+04
      2  -0.533422D-01 -0.391473D-04 -0.172304D-01  0.253477D+00 -0.623351D-01
      3   0.614321D-01 -0.775510D-01  0.634291D-01  0.225612D-01 -0.485150D-01
      4  -0.270707D-02  0.319090D-02  0.207136D-02 -0.196755D-02 -0.907096D-02
      5   0.122664D-01  0.300207D-02  0.164551D-02 -0.430823D-01  0.135898D-01
      6  -0.114773D-01  0.131866D-01 -0.117418D-01 -0.467831D-02  0.979049D-02
      7   0.514391D-03 -0.562258D-03 -0.379758D-03  0.384442D-03  0.167235D-02
      8  -0.123679D-01 -0.192124D-02  0.393071D-02  0.913666D-03 -0.823568D-03
      9  -0.425689D-01 -0.749453D-02  0.138433D-01  0.253661D-01  0.107397D-02
     10   0.768813D+00 -0.193900D+00 -0.117915D+01  0.262079D+00  0.450373D+00
     11   0.272082D+00 -0.150631D+00  0.245195D+01  0.802922D+00  0.338014D+01
     12   0.111753D+00  0.615422D-01  0.808054D-01 -0.133420D+00 -0.240236D+00
     13  -0.194755D-02  0.499956D-02  0.161046D-02 -0.729105D-02  0.604732D-02
     14   0.633359D+00 -0.330238D+00 -0.116248D+01  0.130944D+00  0.565142D+00
     15   0.489667D-01  0.731130D-03 -0.112439D-01 -0.458603D-01 -0.978676D-02
     16   0.983159D-02  0.262640D-02 -0.191137D-02  0.547950D-02  0.582246D-02
                31            32            33            34            35 
      1  -0.214969D+04 -0.214969D+04 -0.214969D+04 -0.214969D+04 -0.214969D+04
      2  -0.214391D+00  0.322362D+00  0.123715D+00  0.192645D+00 -0.177144D+00
      3  -0.955878D-01  0.102113D+00 -0.641010D-01  0.296671D-01 -0.837310D-01
      4   0.390609D-03  0.637690D-04  0.121451D-02 -0.723784D-02  0.209840D-02
      5   0.383455D-01 -0.600200D-01 -0.227393D-01 -0.414651D-01  0.293151D-01
      6   0.184848D-01 -0.211246D-01  0.120423D-01 -0.475085D-02  0.168679D-01
      7  -0.133987D-03 -0.731629D-04 -0.208416D-03  0.131200D-02 -0.422227D-03
      8   0.241091D-02 -0.419668D-03 -0.146916D-02  0.123327D-02 -0.104093D-02
      9  -0.214807D-02  0.104437D-01 -0.325776D-02  0.108401D-01 -0.168414D-01
     10  -0.364463D+00 -0.667163D-01 -0.107388D+00  0.450806D+00  0.264691D-02
     11   0.629115D+00  0.142834D+00 -0.716936D+00 -0.242038D+00 -0.202751D+00
     12  -0.711510D-01 -0.145220D+00 -0.396119D+00 -0.175356D+00 -0.149586D+00
     13   0.285954D-02  0.117303D-01 -0.142101D-01 -0.953887D-02 -0.777849D-02
     14  -0.177401D+00  0.228453D-01  0.151256D-01  0.983168D+00  0.595203D-02
     15   0.873919D-02 -0.110887D-01  0.393001D-02 -0.114688D-01  0.215260D-01
     16   0.420559D-03  0.430742D-02  0.406874D-02 -0.200094D-02 -0.278160D-02
                36            37            38            39            40 
      1  -0.214969D+04 -0.214969D+04 -0.214969D+04 -0.214968D+04 -0.214968D+04
      2  -0.430541D+00 -0.325179D-01  0.340325D+00  0.196930D+00 -0.629475D-01
      3  -0.796023D-01  0.122621D+00  0.361484D+00 -0.110109D+01 -0.251486D+00
      4   0.774153D-03  0.521519D-02  0.457169D-02  0.837487D-02 -0.215238D-01
      5   0.909652D-01  0.944005D-02 -0.701747D-01 -0.514949D-01  0.108635D-01
      6   0.127765D-01 -0.253286D-01 -0.700147D-01  0.221491D+00  0.502912D-01
      7  -0.153979D-03 -0.103079D-02 -0.889446D-03 -0.157449D-02  0.421730D-02
      8   0.452602D-02 -0.642419D-02  0.597982D-02 -0.265850D-02 -0.236019D-02
      9  -0.505919D-02 -0.236627D-01  0.491834D-01 -0.595975D-01 -0.122325D-01
     10  -0.506014D+00 -0.906092D+00 -0.896922D+00 -0.127713D+01  0.379672D+01
     11  -0.638049D+00 -0.201628D+00 -0.257486D+00  0.108582D+01 -0.661029D-01
     12  -0.565838D-01  0.697104D-01 -0.297708D+00  0.426313D-01  0.676968D-01
     13  -0.571098D-02 -0.512940D-04 -0.693647D-02 -0.232783D-02  0.129186D-02
     14  -0.326763D+00 -0.734636D+00 -0.103518D+01 -0.141390D+01  0.369565D+01
     15   0.786232D-02  0.270975D-01 -0.573014D-01  0.571213D-01  0.102856D-01
     16  -0.241894D-02  0.101369D-02 -0.570951D-02  0.315052D-02  0.394634D-02
                41            42            43            44            45 
      1  -0.214968D+04 -0.214968D+04 -0.214968D+04 -0.214967D+04 -0.214967D+04
      2   0.108435D+00  0.931694D-03 -0.264780D-01  0.316242D-01 -0.211239D-02
      3  -0.222713D+00  0.534078D-02 -0.756197D-01  0.152634D+00 -0.291266D-02
      4  -0.250127D-02  0.260469D-02  0.221281D-03  0.559786D-02  0.166952D-02
      5  -0.220798D-01 -0.155085D-03  0.480667D-02 -0.234869D-02  0.255538D-03
      6   0.458500D-01 -0.107790D-02  0.160053D-01 -0.318793D-01  0.571252D-03
      7   0.527402D-03 -0.697318D-03 -0.289534D-04 -0.114498D-02 -0.373489D-03
      8  -0.334480D-02  0.564976D-02 -0.480258D-02  0.888228D-02  0.129706D-01
      9  -0.192348D-01 -0.189833D-01 -0.193410D-01  0.275324D-01 -0.879800D-01
     10   0.660865D+00 -0.100870D-01  0.425934D+00 -0.115667D+01  0.368635D-01
     11  -0.495252D+00  0.112572D-01 -0.843012D-01  0.647924D+00 -0.127286D-01
     12   0.745878D-01 -0.835223D-03  0.300140D-01  0.108429D+00 -0.251929D-02
     13   0.281583D-02 -0.378336D-03  0.531675D-02 -0.639927D-02 -0.970273D-03
     14   0.482375D+00 -0.830085D-02  0.277646D+00 -0.121600D+01  0.366414D-01
     15   0.156527D-01  0.107790D-01  0.181636D-01 -0.120016D-01  0.545416D-01
     16  -0.177260D-03  0.108042D-02  0.259262D-02 -0.155420D-01  0.425568D-02
                46            47            48            49            50 
      1  -0.214967D+04 -0.214967D+04 -0.214967D+04 -0.214967D+04 -0.214967D+04
      2  -0.757992D-01 -0.450448D+00  0.856635D-01  0.327632D+00  0.418528D+00
      3  -0.197288D+00  0.691616D+00  0.239567D-02 -0.731268D+00 -0.339462D+00
      4  -0.416083D-02 -0.159266D-02  0.127253D-02  0.250897D-02 -0.995187D-02
      5   0.166040D-01  0.950823D-01 -0.176059D-01 -0.681285D-01 -0.842239D-01
      6   0.406286D-01 -0.143737D+00 -0.608977D-03  0.153406D+00  0.706407D-01
      7   0.791407D-03  0.358828D-03 -0.300678D-03 -0.406362D-03  0.218586D-02
      8  -0.148548D-02 -0.350886D-02  0.343660D-02 -0.187905D-02  0.237879D-03
      9  -0.180645D-01  0.167520D-01  0.111908D-01 -0.325223D-01  0.234646D-02
     10   0.121492D+01 -0.153878D-01 -0.606623D+00 -0.103076D+01  0.216768D+01
     11  -0.242864D+01  0.795686D+00  0.122234D+01  0.337825D+01 -0.638438D+00
     12   0.608931D-02 -0.188586D+00 -0.264328D-01 -0.914296D-01  0.672631D-01
     13   0.497973D-02  0.840616D-03  0.100238D-01 -0.500109D-02 -0.627484D-02
     14   0.133709D+01 -0.299019D-01 -0.769907D+00 -0.123614D+01  0.197598D+01
     15   0.223568D-01 -0.251102D-01 -0.128716D-01  0.284986D-01 -0.133702D-01
     16   0.168794D-03  0.746282D-02 -0.186066D-02  0.587167D-02  0.568486D-02
 Unable to Open any file for archive entry.
 1\1\GINC-N0921\SP\RB3LYP TD-FC\def2SVP\C40H42O8\UL_DCG62\15-Oct-2020\0
 \\#p td=(nstates=50) b3lyp empiricaldispersion=gd3bj scrf=(smd,solvent
 =acetonitrile) def2svp\\Title\\0,1\C,0,11.421353,1.206777,0.062354\C,0
 ,10.03354,1.417191,0.052381\C,0,11.942713,-0.084725,0.042351\C,0,9.149
 878,0.305867,0.021944\C,0,11.084755,-1.196734,0.011817\C,0,9.703182,-0
 .992547,0.001763\H,0,12.107405,2.052958,0.085525\H,0,13.022241,-0.2496
 51,0.049952\O,0,11.679186,-2.419138,-0.005992\H,0,9.028549,-1.846268,-
 0.021629\C,0,10.85899,-3.570767,-0.040867\H,0,11.534533,-4.437018,-0.0
 5116\H,0,10.228182,-3.598173,-0.947166\H,0,10.206041,-3.63703,0.847523
 \O,0,9.465183,2.651274,0.070571\C,0,10.296354,3.795513,0.106494\H,0,9.
 626816,4.66618,0.117053\H,0,10.948562,3.855673,-0.782299\H,0,10.925454
 ,3.815791,1.013607\C,0,7.708336,0.545977,0.013519\C,0,6.738506,-0.4008
 02,-0.010721\H,0,7.427052,1.600246,0.029575\C,0,5.300413,-0.159729,-0.
 01774\H,0,7.01858,-1.455384,-0.025461\C,0,4.740818,1.133309,-0.006376\
 C,0,3.362678,1.343213,-0.012267\C,0,2.468931,0.235462,-0.029432\C,0,4.
 407007,-1.267429,-0.036314\C,0,3.028976,-1.057947,-0.041751\H,0,5.4118
 54,1.989626,0.007125\H,0,2.358018,-1.9143,-0.055709\O,0,4.973785,-2.50
 2378,-0.047429\C,0,4.139925,-3.644895,-0.070359\H,0,4.807172,-4.517252
 ,-0.076874\H,0,3.506344,-3.670414,-0.974179\H,0,3.491187,-3.695665,0.8
 21525\O,0,2.796387,2.578128,-0.001696\C,0,3.630347,3.72072,0.019663\H,
 0,2.963067,4.593042,0.025656\H,0,4.278575,3.770515,-0.87262\H,0,4.2643
 09,3.747038,0.923159\C,0,1.032506,0.476351,-0.031897\C,0,0.06068,-0.47
 1436,-0.035434\H,0,0.751805,1.53087,-0.027998\C,0,-1.375553,-0.229573,
 -0.03513\H,0,0.341077,-1.526034,-0.036031\C,0,-1.934483,1.064301,-0.04
 3107\C,0,-3.312282,1.274965,-0.039783\C,0,-4.206747,0.167672,-0.027704
 \C,0,-2.270312,-1.336972,-0.024787\C,0,-3.64803,-1.126263,-0.020887\H,
 0,-1.262877,1.920187,-0.05197\H,0,-4.319821,-1.982054,-0.012668\O,0,-1
 .704526,-2.572106,-0.018487\O,0,-3.87789,2.51013,-0.046783\C,0,-3.0432
 15,3.652363,-0.062228\H,0,-3.710013,4.525051,-0.066458\H,0,-2.407324,3
 .681567,-0.964265\H,0,-2.396908,3.69843,0.831636\C,0,-2.539186,-3.7143
 27,-0.005504\H,0,-1.872438,-4.587061,-0.002008\H,0,-3.184767,-3.759044
 ,-0.899985\H,0,-3.175878,-3.744904,0.895934\C,0,-5.643251,0.409869,-0.
 02196\C,0,-6.615568,-0.536152,0.000805\H,0,-5.92268,1.464658,-0.035485
 \C,0,-8.053017,-0.29137,0.008466\H,0,-6.33701,-1.591071,0.017124\C,0,-
 8.608626,1.002681,-0.016477\C,0,-9.987571,1.216193,-0.006619\C,0,-10.8
 78823,0.11111,0.02942\C,0,-8.947855,-1.396975,0.043536\C,0,-10.326357,
 -1.182082,0.053639\H,0,-7.935363,1.856853,-0.043782\H,0,-11.00249,-2.0
 3466,0.079916\O,0,-8.384376,-2.632981,0.065637\O,0,-10.55039,2.452523,
 -0.029009\C,0,-9.712596,3.59187,-0.069334\H,0,-10.376925,4.46641,-0.08
 1757\H,0,-9.084041,3.605508,-0.976928\H,0,-9.05873,3.650525,0.81831\C,
 0,-9.220603,-3.773472,0.103742\H,0,-8.555104,-4.647104,0.115916\H,0,-9
 .873284,-3.831695,-0.784786\H,0,-9.849951,-3.78862,1.010734\C,0,-12.32
 7167,0.348127,0.040303\C,0,-13.298586,-0.579816,0.090827\H,0,-12.61592
 ,1.401446,0.004242\H,0,-13.093754,-1.654055,0.130695\H,0,-14.35076,-0.
 281834,0.093427\\Version=ES64L-G16RevC.01\State=1-A\HF=-2149.8816395\R
 MSD=8.017e-09\PG=C01 [X(C40H42O8)]\\@
 The archive entry for this job was punched.


 DEMOCRATS BUY MOST OF THE BOOKS THAT HAVE BEEN
 BANNED; REPUBLICANS FORM CENSORSHIP COMMITTEES AND
 READ THEM AS A GROUP.
 Job cpu time:       1 days  9 hours 43 minutes 39.9 seconds.
 Elapsed time:       0 days  1 hours  3 minutes 58.4 seconds.
 File lengths (MBytes):  RWF=  18897 Int=      0 D2E=      0 Chk=   1340 Scr=      1
 Normal termination of Gaussian 16 at Thu Oct 15 12:06:31 2020.
